<?xml version="1.0"?>
<VTKFile type="PolyData" version="0.1" byte_order="LittleEndian" header_type="UInt32" compressor="vtkZLibDataCompressor">
  <PolyData>
    <Piece NumberOfPoints="102" NumberOfVerts="0" NumberOfLines="0" NumberOfStrips="0" NumberOfPolys="119">
      <PointData Normals="Normals">
        <DataArray type="Float32" Name="Normals" NumberOfComponents="3" format="ascii" RangeMin="0.9999994138613225" RangeMax="1.0000005909190453">
          0.7023500204086304 0.603007972240448 0.37826600670814514 0.7315170168876648 0.18964800238609314 -0.6549180150032043
          0.8017820119857788 -0.5199840068817139 0.2945530116558075 0.5085930228233337 0.8516150116920471 0.12682899832725525
          0.5302489995956421 -0.8147609829902649 0.2345229983329773 0.8599179983139038 0.3729659914970398 0.3484779894351959
          0.11059799790382385 0.9543989896774292 -0.27729299664497375 0.0235849991440773 0.2239460051059723 -0.9743160009384155
          -0.04776399955153465 -0.9272210001945496 -0.3714570105075836 0.49031201004981995 -0.8706070184707642 -0.04045499861240387
          -0.2499299943447113 0.6649420261383057 -0.7038379907608032 -0.31029200553894043 -0.3752079904079437 -0.873462975025177
          -0.4360339939594269 -0.860850989818573 -0.2623170018196106 -0.6146079897880554 -0.2798430025577545 -0.7375270128250122
          -0.5188069939613342 0.7573990225791931 -0.3964659869670868 0.9975100159645081 -0.041331999003887177 -0.057137999683618546
          -0.7492640018463135 -0.646960973739624 0.14157900214195251 -0.8086860179901123 -0.5453479886054993 0.22050699591636658
          -0.9676820039749146 -0.10380200296640396 -0.22981999814510345 -0.5468649864196777 0.8369799852371216 0.020065000280737877
          -0.7357620000839233 -0.6696739792823792 0.10094799846410751 -0.8823829889297485 0.2542459964752197 0.3959270119667053
          0.34384799003601074 0.9387620091438293 0.022244999185204506 0.8781489729881287 0.14625699818134308 -0.45548200607299805
          -0.4181709885597229 0.821977972984314 0.3866330087184906 0.8029680252075195 0.47083601355552673 -0.3654539883136749
          -0.21920199692249298 -0.9460859894752502 -0.23847800493240356 -0.09546399861574173 -0.9536569714546204 -0.2853510081768036
          0.9149770140647888 0.24433599412441254 -0.32111799716949463 -0.10103599727153778 -0.9579570293426514 -0.26853400468826294
          -0.044617000967264175 -0.9608380198478699 -0.27349600195884705 0.8475940227508545 0.5111100077629089 -0.14265799522399902
          0.5635070204734802 0.8246340155601501 -0.04938099905848503 0.8435490131378174 -0.4568130075931549 -0.28239598870277405
          -0.933131992816925 -0.3582330048084259 0.03056900016963482 0.007745000068098307 -0.9717199802398682 -0.23601000010967255
          0.9918559789657593 0.015130000188946724 -0.12646299600601196 0.811007022857666 0.584975004196167 0.008446999825537205
          0.5298089981079102 0.8234059810638428 0.20323799550533295 0.5979580283164978 0.7937719821929932 0.11122900247573853
          -0.6453909873962402 -0.7544940114021301 -0.11920499801635742 0.9888949990272522 0.1327349990606308 0.0668490007519722
          -0.13721400499343872 0.9616829752922058 -0.2373580038547516 0.8987280130386353 -0.431210994720459 0.07965400069952011
          0.21677400171756744 -0.9762060046195984 -0.0055740000680089 0.9640859961509705 0.09738100320100784 0.24709099531173706
          -0.16893799602985382 0.9418579936027527 -0.29045501351356506 -0.842930018901825 -0.15556600689888 -0.5150430202484131
          0.25556498765945435 -0.7067220211029053 0.6597200036048889 0.8002039790153503 -0.1850000023841858 0.57048100233078
          0.8149610161781311 0.5760210156440735 0.06355299800634384 -0.3672559857368469 0.8266109824180603 -0.4264239966869354
          0.5851359963417053 0.808775007724762 -0.05915199965238571 0.0013229999458417296 0.9836490154266357 0.180090993642807
          -0.04006100073456764 -0.7804279923439026 0.623960018157959 -0.7489870190620422 -0.5563830137252808 -0.3598009943962097
          -0.3399620056152344 -0.931007981300354 -0.13285599648952484 0.4863080084323883 0.36270999908447266 0.794950008392334
          0.32057899236679077 0.7155629992485046 0.6206439733505249 -0.6382570266723633 0.7092329859733582 0.299358993768692
          -0.9672809839248657 0.23589199781417847 0.09339000284671783 -0.45972099900245667 -0.45184600353240967 0.7645210027694702
          0.7023500204086304 0.603007972240448 0.37826600670814514 0.7023500204086304 0.603007972240448 0.37826600670814514
          0.7315170168876648 0.18964800238609314 -0.6549180150032043 0.7315170168876648 0.18964800238609314 -0.6549180150032043
          0.8017820119857788 -0.5199840068817139 0.2945530116558075 0.8017820119857788 -0.5199840068817139 0.2945530116558075
          0.9975100159645081 -0.041331999003887177 -0.057137999683618546 -0.09546399861574173 -0.9536569714546204 -0.2853510081768036
          0.25556498765945435 -0.7067220211029053 0.6597200036048889 0.8002039790153503 -0.1850000023841858 0.57048100233078
          -0.45972099900245667 -0.45184600353240967 0.7645210027694702 0.7315170168876648 0.18964800238609314 -0.6549180150032043
          0.8017820119857788 -0.5199840068817139 0.2945530116558075 -0.04006100073456764 -0.7804279923439026 0.623960018157959
          0.49031201004981995 -0.8706070184707642 -0.04045499861240387 0.8599179983139038 0.3729659914970398 0.3484779894351959
          -0.10103599727153778 -0.9579570293426514 -0.26853400468826294 -0.21920199692249298 -0.9460859894752502 -0.23847800493240356
          -0.10103599727153778 -0.9579570293426514 -0.26853400468826294 -0.933131992816925 -0.3582330048084259 0.03056900016963482
          0.9975100159645081 -0.041331999003887177 -0.057137999683618546 -0.21920199692249298 -0.9460859894752502 -0.23847800493240356
          -0.21920199692249298 -0.9460859894752502 -0.23847800493240356 0.8781489729881287 0.14625699818134308 -0.45548200607299805
          0.5635070204734802 0.8246340155601501 -0.04938099905848503 0.5635070204734802 0.8246340155601501 -0.04938099905848503
          0.5635070204734802 0.8246340155601501 -0.04938099905848503 -0.7357620000839233 -0.6696739792823792 0.10094799846410751
          -0.8086860179901123 -0.5453479886054993 0.22050699591636658 0.4863080084323883 0.36270999908447266 0.794950008392334
          0.4863080084323883 0.36270999908447266 0.794950008392334 0.4863080084323883 0.36270999908447266 0.794950008392334
          -0.04006100073456764 -0.7804279923439026 0.623960018157959 -0.3399620056152344 -0.931007981300354 -0.13285599648952484
          -0.21920199692249298 -0.9460859894752502 -0.23847800493240356 0.5635070204734802 0.8246340155601501 -0.04938099905848503
          -0.4181709885597229 0.821977972984314 0.3866330087184906 0.8475940227508545 0.5111100077629089 -0.14265799522399902
          0.8475940227508545 0.5111100077629089 -0.14265799522399902 -0.9672809839248657 0.23589199781417847 0.09339000284671783
          <InformationKey name="L2_NORM_RANGE" location="vtkDataArray" length="2">
            <Value index="0">
              0.99999941386
            </Value>
            <Value index="1">
              1.0000005909
            </Value>
          </InformationKey>
        </DataArray>
      </PointData>
      <CellData>
      </CellData>
      <Points>
        <DataArray type="Float32" Name="Points" NumberOfComponents="3" format="ascii" RangeMin="0.00700439547397412" RangeMax="0.12718935291750158">
          -0.015460999682545662 0.019582999870181084 -0.11275000125169754 -0.014507999643683434 0.018686000257730484 -0.12007199972867966
          -0.014286999590694904 0.01563500054180622 -0.11284500360488892 -0.01822900027036667 0.022388000041246414 -0.11409900337457657
          -0.01807199977338314 0.01510700024664402 -0.10678499937057495 -0.019473999738693237 0.01642400026321411 -0.10423500090837479
          -0.026413999497890472 0.025085000321269035 -0.1173200011253357 -0.024940000846982002 0.020920999348163605 -0.12295299768447876
          -0.026241999119520187 0.015057999640703201 -0.11823400110006332 -0.021237000823020935 0.01432000007480383 -0.09622900187969208
          -0.029045000672340393 0.023225000128149986 -0.12102700024843216 -0.0287299994379282 0.017942000180482864 -0.12170299887657166
          -0.03487800061702728 0.014556000009179115 -0.11594299972057343 -0.03627200052142143 0.016336999833583832 -0.11642999947071075
          -0.03777899965643883 0.025398999452590942 -0.11154299974441528 -0.019773999229073524 0.01513999979943037 -0.09480500221252441
          -0.03901299834251404 0.016831999644637108 -0.10936400294303894 -0.039159998297691345 0.02029700018465519 -0.1020210012793541
          -0.04031199961900711 0.019422000274062157 -0.1107650026679039 -0.03827200084924698 0.025756999850273132 -0.10464999824762344
          -0.03443299978971481 0.009933999739587307 -0.08336299657821655 -0.034627001732587814 0.016877999529242516 -0.08244399726390839
          -0.02908799983561039 0.02464599907398224 -0.09125299751758575 -0.016582999378442764 0.011742999777197838 -0.0845630019903183
          -0.031261999160051346 0.021554000675678253 -0.08332400023937225 -0.015270999632775784 0.012531000189483166 -0.08208499848842621
          -0.012155000120401382 0.0015300000086426735 -0.07048500329256058 -0.007482999935746193 -0.00011899999663000926 -0.06488999724388123
          -0.0000470000013592653 0.003254000097513199 -0.05923299863934517 -0.003916999790817499 -0.0026199999265372753 -0.05767099931836128
          -0.000805000017862767 -0.005034000147134066 -0.049313001334667206 0.0005499999970197678 0.005795999895781279 -0.053741998970508575
          0.00023099999816622585 0.006885000038892031 -0.044943999499082565 0.006219999864697456 -0.004127999767661095 -0.042181000113487244
          -0.004317000042647123 -0.0028860000893473625 -0.037689000368118286 0.0033030000049620867 -0.009217999875545502 -0.0365150012075901
          0.008429000154137611 -0.00267699989490211 -0.034056998789310455 0.007600000128149986 0.001838000025600195 -0.0310869999229908
          0.0038479999639093876 0.005458000116050243 -0.028233999386429787 0.003071000101044774 0.003135999897494912 -0.024586999788880348
          -0.0016189999878406525 -0.01032199990004301 -0.020760999992489815 0.009875999763607979 -0.0036039999686181545 -0.015046999789774418
          -0.00009200000204145908 0.00608400022611022 -0.021443000063300133 0.008910000324249268 -0.009727000258862972 -0.015615000389516354
          0.004939999897032976 -0.013585000298917294 -0.014487000182271004 0.009944000281393528 -0.004602999892085791 -0.008483000099658966
          -0.0008689999813213944 0.00773000018671155 -0.014550000429153442 -0.008969999849796295 -0.004164999816566706 -0.010355000384151936
          0.006512000225484371 -0.010545000433921814 -0.000674000009894371 0.007594999857246876 -0.007499000057578087 0.0009660000214353204
          0.006173999980092049 0.0044189998880028725 -0.00458399998024106 -0.003924999851733446 0.009104999713599682 -0.009351000189781189
          0.0028409999795258045 0.008143000304698944 -0.0048039997927844524 -0.0035649999044835567 0.010734000243246555 -0.0047439998015761375
          0.0017600000137463212 -0.012102000415325165 -0.0031010000966489315 -0.012272999621927738 -0.009093999862670898 -0.0029319999739527702
          -0.0066650002263486385 -0.011926000006496906 -0.0046430001966655254 0.006473999936133623 0.0026549999602138996 0.00031599999056197703
          0.00267699989490211 0.006554000079631805 -0.0006970000104047358 -0.010281000286340714 0.004954999778419733 -0.002858000108972192
          -0.014198999851942062 -0.0020129999611526728 0.000299000006634742 -0.01363999955356121 -0.008983000181615353 0.0005150000215508044
          -0.015460999682545662 0.019582999870181084 -0.11275000125169754 -0.015460999682545662 0.019582999870181084 -0.11275000125169754
          -0.014507999643683434 0.018686000257730484 -0.12007199972867966 -0.014507999643683434 0.018686000257730484 -0.12007199972867966
          -0.014286999590694904 0.01563500054180622 -0.11284500360488892 -0.014286999590694904 0.01563500054180622 -0.11284500360488892
          -0.019773999229073524 0.01513999979943037 -0.09480500221252441 -0.007482999935746193 -0.00011899999663000926 -0.06488999724388123
          0.006512000225484371 -0.010545000433921814 -0.000674000009894371 0.007594999857246876 -0.007499000057578087 0.0009660000214353204
          -0.01363999955356121 -0.008983000181615353 0.0005150000215508044 -0.014507999643683434 0.018686000257730484 -0.12007199972867966
          -0.014286999590694904 0.01563500054180622 -0.11284500360488892 0.0017600000137463212 -0.012102000415325165 -0.0031010000966489315
          -0.021237000823020935 0.01432000007480383 -0.09622900187969208 -0.019473999738693237 0.01642400026321411 -0.10423500090837479
          -0.003916999790817499 -0.0026199999265372753 -0.05767099931836128 -0.012155000120401382 0.0015300000086426735 -0.07048500329256058
          -0.003916999790817499 -0.0026199999265372753 -0.05767099931836128 -0.004317000042647123 -0.0028860000893473625 -0.037689000368118286
          -0.019773999229073524 0.01513999979943037 -0.09480500221252441 -0.012155000120401382 0.0015300000086426735 -0.07048500329256058
          -0.012155000120401382 0.0015300000086426735 -0.07048500329256058 -0.016582999378442764 0.011742999777197838 -0.0845630019903183
          0.00023099999816622585 0.006885000038892031 -0.044943999499082565 0.00023099999816622585 0.006885000038892031 -0.044943999499082565
          0.00023099999816622585 0.006885000038892031 -0.044943999499082565 -0.03443299978971481 0.009933999739587307 -0.08336299657821655
          -0.039159998297691345 0.02029700018465519 -0.1020210012793541 0.006473999936133623 0.0026549999602138996 0.00031599999056197703
          0.006473999936133623 0.0026549999602138996 0.00031599999056197703 0.006473999936133623 0.0026549999602138996 0.00031599999056197703
          0.0017600000137463212 -0.012102000415325165 -0.0031010000966489315 -0.0066650002263486385 -0.011926000006496906 -0.0046430001966655254
          -0.012155000120401382 0.0015300000086426735 -0.07048500329256058 0.00023099999816622585 0.006885000038892031 -0.044943999499082565
          -0.031261999160051346 0.021554000675678253 -0.08332400023937225 0.0005499999970197678 0.005795999895781279 -0.053741998970508575
          0.0005499999970197678 0.005795999895781279 -0.053741998970508575 -0.014198999851942062 -0.0020129999611526728 0.000299000006634742
          <InformationKey name="L2_NORM_RANGE" location="vtkDataArray" length="2">
            <Value index="0">
              0.007004395474
            </Value>
            <Value index="1">
              0.12718935292
            </Value>
          </InformationKey>
        </DataArray>
      </Points>
      <Verts>
        <DataArray type="Int64" Name="connectivity" format="ascii" RangeMin="1e+299" RangeMax="-1e+299">
        </DataArray>
        <DataArray type="Int64" Name="offsets" format="ascii" RangeMin="1e+299" RangeMax="-1e+299">
        </DataArray>
      </Verts>
      <Lines>
        <DataArray type="Int64" Name="connectivity" format="ascii" RangeMin="1e+299" RangeMax="-1e+299">
        </DataArray>
        <DataArray type="Int64" Name="offsets" format="ascii" RangeMin="1e+299" RangeMax="-1e+299">
        </DataArray>
      </Lines>
      <Strips>
        <DataArray type="Int64" Name="connectivity" format="ascii" RangeMin="1e+299" RangeMax="-1e+299">
        </DataArray>
        <DataArray type="Int64" Name="offsets" format="ascii" RangeMin="1e+299" RangeMax="-1e+299">
        </DataArray>
      </Strips>
      <Polys>
        <DataArray type="Int64" Name="connectivity" format="ascii" RangeMin="0" RangeMax="101">
          0 1 2 4 62 66
          62 3 64 63 67 65
          4 3 62 74 73 7
          7 64 3 3 4 5
          3 6 7 74 7 8
          22 6 3 3 5 22
          22 5 68 9 15 77
          76 5 4 74 17 9
          7 6 10 10 11 7
          11 8 7 8 17 74
          8 12 17 13 12 8
          13 8 11 10 6 14
          22 14 6 20 9 17
          14 11 10 14 13 11
          16 17 12 18 16 12
          18 12 13 14 18 13
          22 19 14 19 18 14
          15 9 20 19 90 16
          19 16 18 21 89 90
          22 68 23 84 85 82
          15 20 96 88 89 21
          24 21 90 24 90 19
          24 88 21 22 24 19
          22 23 25 26 25 23
          31 24 22 100 22 25
          100 25 28 69 25 26
          97 98 99 29 27 79
          88 80 83 88 83 89
          30 33 25 28 25 33
          30 25 69 28 33 100
          80 88 34 78 81 30
          35 33 30 36 32 100
          100 33 36 36 37 32
          37 38 32 47 30 81
          41 39 37 39 38 37
          41 37 36 47 40 30
          35 30 40 40 44 35
          44 33 35 44 43 33
          36 33 43 36 43 41
          86 38 39 42 39 50
          87 39 42 39 41 50
          34 88 42 54 40 47
          44 40 54 44 45 41
          44 41 43 50 41 45
          34 42 46 42 50 46
          34 46 47 70 71 44
          92 45 44 93 44 71
          47 46 51 46 50 51
          50 52 53 50 53 51
          44 54 70 47 51 59
          47 55 56 47 56 54
          59 60 47 47 60 55
          57 49 48 57 48 75
          57 75 58 91 50 45
          58 52 50 58 50 91
          59 51 53 52 58 53
          59 53 58 55 72 94
          55 94 95 55 60 72
          58 61 59 58 75 61
          61 101 59
        </DataArray>
        <DataArray type="Int64" Name="offsets" format="ascii" RangeMin="3" RangeMax="357">
          3 6 9 12 15 18
          21 24 27 30 33 36
          39 42 45 48 51 54
          57 60 63 66 69 72
          75 78 81 84 87 90
          93 96 99 102 105 108
          111 114 117 120 123 126
          129 132 135 138 141 144
          147 150 153 156 159 162
          165 168 171 174 177 180
          183 186 189 192 195 198
          201 204 207 210 213 216
          219 222 225 228 231 234
          237 240 243 246 249 252
          255 258 261 264 267 270
          273 276 279 282 285 288
          291 294 297 300 303 306
          309 312 315 318 321 324
          327 330 333 336 339 342
          345 348 351 354 357
        </DataArray>
      </Polys>
    </Piece>
  </PolyData>
</VTKFile>
