<?xml version="1.0"?>
<VTKFile type="PolyData" version="0.1" byte_order="LittleEndian" header_type="UInt32" compressor="vtkZLibDataCompressor">
  <PolyData>
    <Piece NumberOfPoints="5293" NumberOfVerts="0" NumberOfLines="0" NumberOfStrips="0" NumberOfPolys="3192">
      <PointData Normals="Normals">
        <DataArray type="Float32" Name="Normals" NumberOfComponents="3" format="ascii" RangeMin="0.9999992459382429" RangeMax="1.0000007704104072">
          0.9029139876365662 0.32594799995422363 0.2801859974861145 0.9370869994163513 0.34193000197410583 0.07037600129842758
          0.5674539804458618 0.6722180247306824 -0.47551900148391724 0.4852069914340973 0.8703910112380981 -0.08362700045108795
          0.7753679752349854 -0.1783279925584793 -0.6058089733123779 0.9775609970092773 -0.11223799735307693 0.17826099693775177
          0.8347709774971008 0.34476199746131897 -0.4292980134487152 0.8991569876670837 0.37094399333000183 0.2322009950876236
          -0.028689999133348465 0.932237982749939 -0.36070701479911804 0.15633100271224976 0.5917080044746399 -0.790848970413208
          0.5364050269126892 0.7113010287284851 -0.45422500371932983 -0.39750200510025024 0.3322109878063202 -0.855351984500885
          0.6346619725227356 0.26134198904037476 -0.727258026599884 0.9228469729423523 0.26459801197052 0.27989399433135986
          0.9578980207443237 0.27834200859069824 0.0703980028629303 0.6123909950256348 0.6325610280036926 -0.4741770029067993
          0.5449169874191284 0.8342790007591248 -0.08393300324678421 0.7612460255622864 -0.22978000342845917 -0.6063870191574097
          0.9677690267562866 -0.17776699364185333 0.17838500440120697 0.8557299971580505 0.2882649898529053 -0.4296860098838806
          0.8736270070075989 -0.4591990113258362 0.160971000790596 0.7608479857444763 -0.23045100271701813 0.6066319942474365
          0.5143439769744873 -0.33883601427078247 -0.7878069877624512 0.8745740056037903 -0.1792600005865097 -0.4505389928817749
          0.5144240260124207 -0.33876198530197144 -0.7877870202064514 0.7049430012702942 -0.6989139914512634 -0.12072300165891647
          0.6897280216217041 0.23242700099945068 0.6857500076293945 0.9409149885177612 0.19110800325870514 0.2795650064945221
          0.9768649935722351 0.20195800065994263 0.07034599781036377 0.6621270179748535 0.5813189744949341 -0.47292399406433105
          0.6112189888954163 0.7869539856910706 -0.0843529999256134 0.7398639917373657 -0.2899090051651001 -0.6070860028266907
          0.9506239891052246 -0.25377601385116577 0.17863699793815613 0.8750810027122498 0.2219260036945343 -0.43009498715400696
          0.8334810137748718 -0.5285009741783142 0.1612360030412674 0.9431719779968262 0.2383890002965927 0.2315090000629425
          0.7395640015602112 -0.290134996175766 0.6073439717292786 0.484156996011734 -0.3790090084075928 -0.7886340022087097
          0.8573300242424011 -0.2480739951133728 -0.45104900002479553 0.4842439889907837 -0.37897899746894836 -0.7885950207710266
          0.6447629928588867 -0.7546899914741516 -0.12134599685668945 0.7062039971351624 0.17825500667095184 0.6852020025253296
          0.9586160182952881 0.05585400015115738 0.2791689932346344 0.9956259727478027 0.06182200089097023 0.0700559988617897
          0.7399389743804932 0.4800789952278137 -0.47118398547172546 0.7204859852790833 0.6882399916648865 -0.08500400185585022
          0.6890220046043396 -0.3925029933452606 -0.609254002571106 0.9045429825782776 -0.3867950141429901 0.17941999435424805
          0.897354006767273 0.09705899655818939 -0.43050599098205566 0.9232649803161621 -0.36445099115371704 -0.12148000299930573
          0.7467039823532104 -0.6451230049133301 0.16201399266719818 0.8122109770774841 -0.36779600381851196 -0.4528129994869232
          0.4210070073604584 -0.4447380006313324 -0.7905449867248535 0.5236369967460632 -0.843110978603363 -0.12234699726104736
          0.9598810076713562 0.02651200070977211 0.27915099263191223 0.9970660209655762 0.031217999756336212 0.06989700347185135
          0.7547199726104736 0.4568359851837158 -0.4708479940891266 0.7420340180397034 0.6649370193481445 -0.08511299639940262
          0.6761850118637085 -0.4135949909687042 -0.6096829771995544 0.8921390175819397 -0.41448700428009033 0.1796880066394806
          0.8998960256576538 0.06958699971437454 -0.4305169880390167 0.9115560054779053 -0.392751008272171 -0.12170200049877167
          0.7258080244064331 -0.6684889793395996 0.16225099563598633 0.8002889752388 -0.39263099431991577 -0.4531860053539276
          0.40627598762512207 -0.4576660096645355 -0.7908740043640137 0.4959160089492798 -0.859673023223877 -0.12259099632501602
          0.7267770171165466 0.056161001324653625 0.6845740079879761 -0.663902997970581 0.22809000313282013 0.7121850252151489
          -0.9839779734611511 0.16430899500846863 -0.06920500099658966 -0.11262699961662292 -0.9771530032157898 0.18024200201034546
          0.16677500307559967 -0.5525810122489929 0.8166030049324036 0.4640769958496094 0.8108469843864441 0.3565959930419922
          -0.006823999807238579 0.788877010345459 0.6145129799842834 0.4273259937763214 -0.0507269985973835 0.9026730060577393
          -0.5742980241775513 0.8020579814910889 -0.16396500170230865 -0.30515700578689575 0.9443020224571228 0.12317600101232529
          -0.3014490008354187 0.5281339883804321 0.7938529849052429 -0.7049229741096497 0.5426470041275024 0.45674699544906616
          -0.3047010004520416 0.9444239735603333 0.12337300181388855 -0.949633002281189 0.3030959963798523 -0.07956500351428986
          -0.10681000351905823 0.8865470290184021 -0.4501410126686096 -0.6243100166320801 -0.24827800691127777 0.7406719923019409
          0.06497500091791153 -0.5495179891586304 0.8329520225524902 0.2755129933357239 0.9435189962387085 -0.18402400612831116
          0.5514619946479797 0.7468219995498657 0.37168100476264954 0.16839699447155 0.8161219954490662 0.5527989864349365
          0.4635249972343445 -0.10675299912691116 0.8796300292015076 -0.46790599822998047 0.87260502576828 -0.1400880068540573
          -0.4678660035133362 0.8726400136947632 -0.14000500738620758 -0.22040699422359467 0.9603409767150879 0.1707790046930313
          -0.2515139877796173 0.57504802942276 0.7784990072250366 -0.6687210202217102 0.6296190023422241 0.39546599984169006
          -0.3079319894313812 0.07035200297832489 0.9488040208816528 -0.22022800147533417 0.960328996181488 0.1710759997367859
          -0.6441929936408997 0.2736090123653412 0.7142500281333923 -0.9707249999046326 0.2301120012998581 -0.06885100156068802
          -0.13597799837589264 0.8516489863395691 -0.5061650276184082 -0.5985069870948792 -0.33113500475883484 0.7294780015945435
          0.12742400169372559 -0.5614619851112366 0.8176329731941223 0.16831299662590027 0.9609969854354858 -0.2194419950246811
          0.4089460074901581 0.8721140027046204 0.2686629891395569 0.049949999898672104 0.7869129776954651 0.6150389909744263
          0.42264100909233093 -0.07907400280237198 0.9028409719467163 -0.5133559703826904 0.8426340222358704 -0.16258199512958527
          -0.5164870023727417 0.8403180241584778 -0.16463899612426758 -0.3459930121898651 0.910830020904541 0.22511699795722961
          -0.2555220127105713 0.5449560284614563 0.7985810041427612 -0.661607027053833 0.5894590020179749 0.46348100900650024
          -0.36096200346946716 0.06678900122642517 0.9301859736442566 -0.2626839876174927 0.5467510223388672 0.7950220108032227
          -0.3561440110206604 0.9087290167808533 0.2176540046930313 -0.655597984790802 0.32473498582839966 0.6817169785499573
          -0.9612119793891907 0.26501399278640747 -0.07642000168561935 -0.25071701407432556 -0.9541059732437134 0.1637749969959259
          0.09462299942970276 -0.5581110119819641 0.8243529796600342 0.5517889857292175 0.7549830079078674 0.35430100560188293
          0.08202499896287918 0.7831799983978271 0.6163610219955444 0.42027100920677185 -0.09032200276851654 0.902891993522644
          -0.48734501004219055 0.8572930097579956 -0.1659640073776245 -0.19873499870300293 0.9721840023994446 0.12394800037145615
          -0.24169600009918213 0.5531839728355408 0.7972270250320435 -0.6466649770736694 0.6077989935874939 0.4608739912509918
          -0.19842499494552612 0.9722359776496887 0.1240369975566864 -0.9425259828567505 0.3245239853858948 -0.07955999672412872
          -0.08442699909210205 0.8889009952545166 -0.4502519965171814 -0.6298019886016846 -0.23383399844169617 0.7407230138778687
          0.052111998200416565 -0.5505260229110718 0.8331900238990784 0.29836198687553406 0.9365450143814087 -0.18401899933815002
          0.5693709850311279 0.7333120107650757 0.3715769946575165 0.1879740059375763 0.8116539716720581 0.5530679821968079
          0.46086999773979187 -0.11721300333738327 0.8796929717063904 -0.4470919966697693 0.8834350109100342 -0.14018400013446808
          -0.44723400473594666 0.8833649754524231 -0.140174001455307 -0.1966869980096817 0.9654080271720886 0.1711760014295578
          -0.23732000589370728 0.5803769826889038 0.779000997543335 -0.6536880135536194 0.6447700262069702 0.3961859941482544
          -0.3061339855194092 0.07728999853134155 0.9488459825515747 -0.19715699553489685 0.9653310179710388 0.17107200622558594
          -0.9833260178565979 0.03624799847602844 -0.17820300161838531 0.36153000593185425 0.7033299803733826 -0.6120650172233582
          -0.8736550211906433 -0.4414120018482208 -0.20465399324893951 -0.3827750086784363 -0.1930609941482544 -0.9034439921379089
          -0.10784699767827988 -0.600600004196167 -0.7922419905662537 -0.004925000015646219 0.5128380060195923 0.8584709763526917
          0.2729699909687042 0.9479590058326721 0.16389100253582 0.7941650152206421 -0.5992730259895325 -0.10086700320243835
          0.9318130016326904 -0.32538899779319763 0.16076600551605225 0.7871149778366089 -0.11765599995851517 -0.6054810285568237
          -0.47913500666618347 -0.7500460147857666 0.45591801404953003 -0.10839100182056427 -0.6009259819984436 0.7919219732284546
          0.42322298884391785 -0.299919992685318 0.8549450039863586 0.7867469787597656 -0.11805099993944168 0.6058819890022278
          0.6486200094223022 0.3272649943828583 0.6871600151062012 -0.6833140254020691 0.1703909933567047 0.7099639773368835
          -0.994268000125885 0.08123300224542618 -0.06952100247144699 -0.024639999493956566 -0.9835399985313416 0.1790039986371994
          0.21559199690818787 -0.5378379821777344 0.815015971660614 0.008595000021159649 0.9757159948348999 -0.21887199580669403
          0.3884409964084625 0.8492869734764099 0.3575249910354614 -0.07880699634552002 0.7857540249824524 0.6134979724884033
          0.43024900555610657 -0.01512799970805645 0.9025830030441284 -0.6423659920692444 0.7488210201263428 -0.16319499909877777
          -0.38893601298332214 0.913017988204956 0.12299200147390366 -0.3480899930000305 0.5005670189857483 0.792631983757019
          -0.7496259808540344 0.4806089997291565 0.45505499839782715 -0.34804800152778625 0.5005549788475037 0.7926589846611023
          -0.3888790011405945 0.9130319952964783 0.12307099997997284 -0.728422999382019 0.02526400052011013 -0.6846619844436646
          0.9395380020141602 0.1997150033712387 0.2781760096549988 0.9746400117874146 0.21135200560092926 0.07353200018405914
          0.670635998249054 0.5834559798240662 -0.45806801319122314 0.6239609718322754 0.7769680023193359 -0.08362399786710739
          0.7426270246505737 -0.2810730040073395 -0.6078670024871826 0.9536020159721375 -0.242126002907753 0.17893800139427185
          0.8687620162963867 0.23737099766731262 -0.4346350133419037 0.9686390161514282 -0.2173530012369156 -0.12039999663829803
          0.8340399861335754 -0.5275959968566895 0.16130299866199493 0.7422029972076416 -0.2814910113811493 0.6081920266151428
          0.8610460162162781 -0.23755699396133423 -0.44962799549102783 0.4814450144767761 -0.3767249882221222 -0.7913839817047119
          0.6412969827651978 -0.756729006767273 -0.12688200175762177 0.7085509896278381 0.1934870034456253 0.6786149740219116
          0.9491890072822571 -0.08517000079154968 0.3029620051383972 0.9898769855499268 -0.08125200122594833 0.11637099832296371
          0.8518840074539185 0.33997198939323425 -0.39838701486587524 0.868835985660553 0.4950990080833435 -0.0008290000259876251
          0.6620709896087646 -0.4475480020046234 -0.6011340022087097 0.8710730075836182 -0.4584760069847107 0.17615899443626404
          0.9000849723815918 0.02064099907875061 -0.4352259933948517 0.8908600211143494 -0.43849700689315796 -0.11870100349187851
          0.6947339773178101 -0.7016280293464661 0.15830999612808228 0.9736779928207397 0.02218399941921234 0.22684499621391296
          0.6616650223731995 -0.4478060007095337 0.6013889908790588 0.3905929923057556 -0.47861599922180176 -0.7863609790802002
          0.784492015838623 -0.433135986328125 -0.44380900263786316 0.7844709753990173 -0.43312299251556396 -0.44385799765586853
          0.39057400822639465 -0.4785909950733185 -0.7863860130310059 0.4641909897327423 -0.8767420053482056 -0.12589900195598602
          0.7350490093231201 0.016645999625325203 0.67781001329422 -0.5760800242424011 0.748100996017456 0.3293589949607849
          -0.8080220222473145 0.5727310180664062 -0.1381250023841858 -0.7656360268592834 -0.6395859718322754 -0.06878700107336044
          -0.12182900309562683 -0.4566679894924164 0.8812559843063354 0.38270801305770874 0.8980569839477539 -0.21685799956321716
          0.6851469874382019 0.631525993347168 0.3629719913005829 0.23158599436283112 0.7587670087814331 0.6088029742240906
          0.3856950104236603 -0.19558599591255188 0.901656985282898 -0.28890201449394226 0.9441199898719788 -0.15865999460220337
          -0.004100999794900417 0.9924370050430298 0.12268500030040741 -0.12322500348091125 0.6061819791793823 0.785722017288208
          -0.4887320101261139 0.7498440146446228 0.44595301151275635 -0.12302500009536743 0.6061170101165771 0.7858030200004578
          -0.0037249999586492777 0.9924280047416687 0.12276999652385712 -0.6525110006332397 0.3304600119590759 -0.6819279789924622
          -0.7640069723129272 0.4534739851951599 0.4589709937572479 -0.9556549787521362 0.27090001106262207 -0.11548600345849991
          -0.4016079902648926 -0.9146869778633118 0.04537399858236313 0.0595720000565052 -0.5223060250282288 0.8506749868392944
          0.13578000664710999 0.9670159816741943 -0.21550999581813812 0.4917069971561432 0.7925649881362915 0.36064600944519043
          0.02661300078034401 0.793757975101471 0.6076509952545166 0.42846399545669556 -0.07365000247955322 0.900551974773407
          -0.5394049882888794 0.8267130255699158 -0.159961998462677 -0.272832989692688 0.9537050127983093 0.12652400135993958
          -0.2833220064640045 0.5445020198822021 0.7894589900970459 -0.6828389763832092 0.5773209929466248 0.4476949870586395
          -0.28345900774002075 0.5444980263710022 0.7894129753112793 -0.2730810046195984 0.9536359906196594 0.12651200592517853
          -0.7240750193595886 0.1240840032696724 -0.6784679889678955 0.8729190230369568 0.4050689935684204 0.2719059884548187
          0.9036809802055359 0.4235360026359558 0.06307200342416763 0.5194929838180542 0.7148799896240234 -0.46805301308631897
          0.43008100986480713 0.8970000147819519 -0.10208900272846222 0.7801229953765869 -0.12071000039577484 -0.6138709783554077
          0.9827269911766052 -0.035739000886678696 0.18157599866390228 0.7962679862976074 0.4205990135669708 -0.4348039925098419
          0.9924880266189575 -0.007763999979943037 -0.12209799885749817 0.9224680066108704 -0.34950700402259827 0.16400699317455292
          0.7796769738197327 -0.12097100168466568 0.6143860220909119 0.8889889717102051 -0.051500000059604645 -0.45502299070358276
          0.5406249761581421 -0.2713730037212372 -0.7962920069694519 0.7742230296134949 -0.619674026966095 -0.12877599895000458
          0.6495969891548157 0.3431819975376129 0.678417980670929 -0.7058730125427246 0.5501949787139893 0.4461280107498169
          0.9021530151367188 0.17388300597667694 0.39482301473617554 -0.9779300093650818 0.19480000436306 -0.07553599774837494
          -0.6218529939651489 -0.7493249773979187 0.22762100398540497 0.05409799888730049 -0.43941599130630493 0.8966529965400696
          0.3494209945201874 0.9234920144081116 -0.15832599997520447 0.5876070261001587 0.7187529802322388 0.37163400650024414
          0.2924189865589142 0.8228240013122559 0.48728999495506287 -0.1866990029811859 0.9576770067214966 0.2190849930047989
          -0.7633010149002075 0.5303599834442139 0.3689039945602417 -0.348796010017395 0.09011700004339218 0.932856023311615
          -0.2597860097885132 0.5309450030326843 0.8066030144691467 -0.8038840293884277 0.2086849957704544 -0.5569750070571899
          -0.29126501083374023 0.9563990235328674 0.021578000858426094 -0.25362101197242737 0.5740410089492798 0.7785590291023254
          0.41179001331329346 0.37536901235580444 0.830377995967865 -0.3500649929046631 -0.7628210186958313 0.5436540246009827
          0.8540840148925781 0.5043219923973083 -0.12727800011634827 0.9590989947319031 0.23065200448036194 0.16409899294376373
          0.41232699155807495 0.3758319914340973 -0.8299019932746887 0.7892429828643799 0.5248799920082092 -0.31874099373817444
          -0.8973190188407898 -0.2420859932899475 0.36907100677490234 -0.5470640063285828 -0.37440699338912964 0.748691976070404
          0.1295509934425354 -0.5096750259399414 0.8505570292472839 0.39275500178337097 -0.8516749739646912 -0.34697601199150085
          0.13016100227832794 -0.5092039704322815 -0.8507459759712219 0.27643901109695435 -0.9547939896583557 -0.10931400209665298
          0.4714759886264801 -0.8707079887390137 0.13992300629615784 -0.6790540218353271 0.6329159736633301 0.37189099192619324
          -0.9169179797172546 0.3896400034427643 -0.08626800030469894 -0.7274810075759888 -0.6583300232887268 0.19332200288772583
          -0.009100000374019146 -0.5000060200691223 0.8659740090370178 0.5860310196876526 0.7214589715003967 0.36886900663375854
          0.2849299907684326 0.8190940022468567 0.4978959858417511 0.4892610013484955 -0.1378519982099533 0.8611739873886108
          -0.1988150030374527 0.9536600112915039 0.22584499418735504 -0.22273099422454834 0.599793016910553 0.768530011177063
          -0.6526870131492615 0.6720809936523438 0.34972500801086426 -0.35201600193977356 0.07872500270605087 0.9326769709587097
          -0.2225620001554489 0.5997909903526306 0.768580973148346 -0.19851399958133698 0.9537349939346313 0.22579200565814972
          -0.8129450082778931 0.18268899619579315 -0.5529429912567139 -0.6966819763183594 0.6368529796600342 0.33023199439048767
          0.9164000153541565 0.08791600167751312 0.39048999547958374 -0.9390860199928284 0.33340001106262207 -0.08344200253486633
          -0.7523689866065979 -0.6276779770851135 0.19990499317646027 -0.7220739722251892 -0.14417800307273865 0.6766260266304016
          0.009850000031292439 -0.46644100546836853 0.8844980001449585 0.557328999042511 0.7444369792938232 0.3676919937133789
          0.2846519947052002 0.8357040286064148 0.4696510136127472 -0.4533100128173828 0.8836429715156555 -0.11698400229215622
          -0.24176999926567078 0.9381459951400757 0.2478490024805069 -0.2552559971809387 0.5843889713287354 0.770281970500946
          -0.7060739994049072 0.6254919767379761 0.3319939970970154 -0.25532999634742737 0.5844039916992188 0.7702460289001465
          -0.24188700318336487 0.9381250143051147 0.24781200289726257 -0.7471309900283813 0.5787699818611145 0.3268350064754486
          0.9064850211143494 0.16075199842453003 0.39044100046157837 -0.9624080061912537 0.25841501355171204 -0.0836229994893074
          -0.7002170085906982 -0.6857320070266724 0.19866299629211426 -0.7086920142173767 -0.20094400644302368 0.6762959957122803
          0.04732400178909302 -0.46522900462150574 0.8839250206947327 0.4924269914627075 0.7887369990348816 0.3679809868335724
          0.213128000497818 0.8571140170097351 0.46897000074386597 -0.3199470043182373 0.9145650267601013 0.2473980039358139
          -0.303507000207901 0.5628820061683655 0.7687960267066956 -0.7541930079460144 0.5674239993095398 0.33048900961875916
          -0.37814998626708984 0.04319699853658676 0.9247360229492188 -0.30326399207115173 0.562857985496521 0.7689089775085449
          -0.31957098841667175 0.9146680235862732 0.24750100076198578 -0.8456060290336609 0.09723500162363052 -0.5248770117759705
          0.28569498658180237 -0.4618299901485443 -0.839697003364563 -0.7258989810943604 -0.68756502866745 0.018017999827861786
          -0.5232660174369812 -0.03311999887228012 -0.8515260219573975 0.38013601303100586 0.024529999122023582 -0.9246050119400024
          0.5348830223083496 0.03435000032186508 -0.8442280292510986 -0.8368129730224609 -0.46769800782203674 0.28461000323295593
          -0.4920879900455475 -0.5139409899711609 0.7026469707489014 0.28530898690223694 -0.4623439908027649 0.8395460247993469
          -0.8925269842147827 -0.056738998740911484 -0.447409987449646 0.8497310280799866 0.05411500111222267 0.5244320034980774
          -0.405799001455307 0.4993079900741577 0.7655180096626282 0.774599015712738 -0.6324520111083984 0.00032699998700991273
          -0.24239900708198547 -0.9554110169410706 0.16862300038337708 0.5927280187606812 -0.6445549726486206 -0.482930988073349
          -0.24239200353622437 -0.9554129838943481 -0.1686200052499771 -0.6529179811477661 -0.5328239798545837 -0.5383279919624329
          -0.03585800155997276 -0.5022010207176208 0.8640069961547852 -0.6660000085830688 -0.6054210066795349 -0.43578600883483887
          -0.03585800155997276 -0.5022010207176208 -0.8640069961547852 -0.6660000085830688 -0.6054210066795349 0.43578600883483887
          0.05615700036287308 -0.9789559841156006 0.1961909979581833 0.03362099826335907 -0.07333700358867645 0.9967399835586548
          0.6503649950027466 0.2246589958667755 -0.7256410121917725 0.05615700036287308 -0.9789559841156006 -0.1961909979581833
          0.03362099826335907 -0.07333700358867645 -0.9967399835586548 0.6505280137062073 0.22475500404834747 0.7254639863967896
          -0.583603024482727 0.7425490021705627 -0.3286759853363037 -0.2419320046901703 -0.01868000067770481 -0.9701129794120789
          -0.5836600065231323 0.7425649762153625 0.3285380005836487 -0.11432799696922302 -0.5753170251846313 0.8099009990692139
          -0.2147199958562851 -0.6385459899902344 0.7390220165252686 0.483117014169693 -0.1168299987912178 0.8677260279655457
          -0.6168760061264038 0.7870609760284424 0.000037999998312443495 -0.2147199958562851 -0.6385459899902344 -0.7390220165252686
          -0.11432799696922302 -0.5753170251846313 -0.8099009990692139 0.483117014169693 -0.1168299987912178 -0.8677260279655457
          0.8762189745903015 -0.16364699602127075 -0.4532780051231384 -0.4391799867153168 -0.6589480042457581 -0.6106619834899902
          0.4017379879951477 0.7464320063591003 0.5305150151252747 0.4017319977283478 0.7464380264282227 -0.5305100083351135
          -0.15643399953842163 0.4498269855976105 0.8793089985847473 -0.2194949984550476 0.8979039788246155 0.3815639913082123
          -0.21948499977588654 0.8979099988937378 -0.3815560042858124 0.2172510027885437 0.6336420178413391 0.7424960136413574
          0.21317799389362335 0.67392498254776 0.7073749899864197 0.4506019949913025 0.3584820032119751 0.8175870180130005
          -0.9459760189056396 0.08797399699687958 -0.3120749890804291 0.10324499756097794 0.008550000376999378 0.9946190118789673
          -0.9758120179176331 0.08593399822711945 -0.20101399719715118 0.216606006026268 -0.9762589931488037 -0.00009999999747378752
          0.09691700339317322 -0.9162330031394958 -0.3887459933757782 -0.8713330030441284 0.4475559890270233 0.20117700099945068
          -0.8712859749794006 0.44771701097488403 -0.20102199912071228 -0.15643000602722168 0.4498339891433716 -0.8793060183525085
          0.2172510027885437 0.6336420178413391 -0.7424960136413574 0.21317799389362335 0.67392498254776 -0.7073749899864197
          0.3265500068664551 -0.650439977645874 -0.6857789754867554 -0.6709269881248474 -0.6745089888572693 0.3080500066280365
          -0.9459760189056396 0.08797399699687958 0.3120749890804291 0.4506019949913025 0.3584820032119751 -0.8175870180130005
          -0.023886999115347862 0.22547399997711182 -0.9739559888839722 0.10324499756097794 0.008550000376999378 -0.9946190118789673
          -0.9758120179176331 0.08593399822711945 0.20101399719715118 -0.48637598752975464 -0.36607998609542847 0.793362021446228
          -0.5118510127067566 -0.8143529891967773 0.27356499433517456 -0.8911610245704651 0.12490499764680862 0.4361549913883209
          -0.6216549873352051 -0.6630370020866394 0.4170460104942322 0.3131060004234314 -0.8924670219421387 -0.324755996465683
          0.3130820095539093 -0.8925129771232605 0.3246529996395111 -0.7985849976539612 0.2665190100669861 0.5396569967269897
          -0.798662006855011 0.2665039896965027 -0.5395510196685791 -0.8911610245704651 0.12490499764680862 -0.4361549913883209
          -0.6216549873352051 -0.6630370020866394 -0.4170460104942322 -0.48637598752975464 -0.36607998609542847 -0.793362021446228
          -0.5118510127067566 -0.8143529891967773 -0.27356499433517456 0.5570979714393616 -0.7797049880027771 -0.28583401441574097
          0.10690099745988846 -0.9422159790992737 0.31749099493026733 0.10690099745988846 -0.9422159790992737 -0.31749099493026733
          -0.7666289806365967 0.6420890092849731 -0.0014029999729245901 0.6132950186729431 -0.6582559943199158 0.43654200434684753
          0.613290011882782 -0.658253014087677 -0.4365530014038086 -0.8358929753303528 0.0008350000134669244 0.5488920211791992
          -0.8348879814147949 0.0005080000264570117 -0.5504199862480164 0.8073840141296387 -0.5900260210037231 0.00035700001171790063
          0.6170099973678589 -0.6065130233764648 0.5014399886131287 -0.3574120104312897 -0.9339470267295837 0.000048000001697801054
          0.6170070171356201 -0.6065179705619812 -0.5014359951019287 0.3453589975833893 -0.5695409774780273 -0.7458890080451965
          -0.9373999834060669 -0.34825399518013 0.0001140000022132881 -0.2517240047454834 -0.04918999969959259 0.9665480256080627
          -0.7801510095596313 -0.45517998933792114 0.42915698885917664 -0.7801510095596313 -0.45517998933792114 -0.42915698885917664
          -0.2517240047454834 -0.04918999969959259 -0.9665480256080627 -0.6770550012588501 -0.5319610238075256 -0.508542001247406
          -0.023837000131607056 -0.4631060063838959 -0.8859819769859314 -0.6770550012588501 -0.5319610238075256 0.508542001247406
          -0.0850759968161583 -0.9741820096969604 0.20912300050258636 0.05054900050163269 -0.03229599818587303 0.9981989860534668
          0.6499699950218201 0.2396630048751831 -0.7211800217628479 -0.0850759968161583 -0.9741820096969604 -0.20912300050258636
          0.05054900050163269 -0.03229599818587303 -0.9981989860534668 0.646511971950531 0.6817589998245239 -0.34238401055336
          -0.542186975479126 0.7551550269126892 -0.3684749901294708 -0.24682599306106567 -0.037845999002456665 -0.9683210253715515
          -0.5422449707984924 0.7551869750022888 0.36832401156425476 -0.35860100388526917 -0.5934860110282898 0.7205410003662109
          0.310820996761322 -0.1079770028591156 0.9443150162696838 0.7729139924049377 -0.39050599932670593 0.5001090168952942
          -0.5955179929733276 0.8033419847488403 0.00003600000127335079 0.310820996761322 -0.1079770028591156 -0.9443150162696838
          -0.5148419737815857 -0.5837699770927429 -0.6278129816055298 0.9025760293006897 -0.32798001170158386 0.27890101075172424
          -0.40286099910736084 0.5442360043525696 0.7358739972114563 0.377144992351532 0.7587609887123108 0.5310779809951782
          0.3771379888057709 0.7587670087814331 -0.5310739874839783 -0.17125999927520752 0.4446539878845215 0.8791769742965698
          -0.11620400100946426 0.9839569926261902 -0.13537099957466125 -0.11620400100946426 0.9839569926261902 0.13537099957466125
          -0.24905599653720856 0.8902090191841125 -0.3814440071582794 0.3007040023803711 0.6264950037002563 0.7190830111503601
          0.4132319986820221 0.3953169882297516 0.820343017578125 0.27530598640441895 -0.5940939784049988 0.7558169960975647
          -0.875353991985321 -0.299001008272171 0.3799389898777008 -0.9288550019264221 0.11241500079631805 -0.3529750108718872
          -0.2931489944458008 0.28867000341415405 0.9114459753036499 -0.9763799905776978 0.07968000322580338 -0.20082899928092957
          -0.12624900043010712 -0.9919989705085754 -0.00012700000661425292 -0.8922619819641113 0.39515799283981323 0.21844500303268433
          -0.8922169804573059 0.39533498883247375 -0.21830900013446808 -0.17125600576400757 0.4446609914302826 -0.879173994064331
          0.3007040023803711 0.6264950037002563 -0.7190830111503601 0.27530598640441895 -0.5940939784049988 -0.7558169960975647
          -0.875353991985321 -0.299001008272171 -0.3799389898777008 -0.9288550019264221 0.11241500079631805 0.3529750108718872
          0.4132319986820221 0.3953169882297516 -0.820343017578125 -0.9763799905776978 0.07968000322580338 0.20082899928092957
          -0.4803600013256073 -0.4552899897098541 0.7496439814567566 -0.891959011554718 0.11890300363302231 0.4362010061740875
          0.23455899953842163 -0.9082289934158325 0.34655699133872986 -0.8004720211029053 0.26121699810028076 -0.5394539833068848
          -0.891959011554718 0.11890300363302231 -0.4362010061740875 -0.7415480017662048 -0.5679919719696045 -0.3570590019226074
          -0.4803600013256073 -0.4552899897098541 -0.7496439814567566 0.23455899953842163 -0.9082289934158325 -0.34655699133872986
          -0.7709839940071106 0.6368529796600342 -0.0013790000230073929 0.2376679927110672 -0.9713460206985474 -0.00043899999582208693