<?xml version="1.0"?>
<VTKFile type="PolyData" version="0.1" byte_order="LittleEndian" header_type="UInt32" compressor="vtkZLibDataCompressor">
  <PolyData>
    <Piece NumberOfPoints="170" NumberOfVerts="0" NumberOfLines="0" NumberOfStrips="0" NumberOfPolys="176">
      <PointData Normals="Normals">
        <DataArray type="Float32" Name="Normals" NumberOfComponents="3" format="ascii" RangeMin="0.9999993416138742" RangeMax="1.0000005345828822">
          -0.24196499586105347 0.9283869862556458 0.28204599022865295 -0.39081400632858276 0.43125098943710327 0.813194990158081
          -0.10167200118303299 0.8354610204696655 0.5400630235671997 -0.7617220282554626 0.635977029800415 -0.12374500185251236
          0.08083400130271912 0.45626699924468994 0.8861640095710754 0.16880300641059875 0.9210579991340637 0.350939005613327
          -0.23554900288581848 0.8782839775085449 -0.41609299182891846 -0.7848269939422607 0.49026501178741455 -0.3790610134601593
          -0.9966520071029663 0.06247600167989731 0.052740998566150665 -0.7760390043258667 -0.14617900550365448 0.613510012626648
          -0.2241780012845993 -0.06477099657058716 0.9723929762840271 0.28356799483299255 0.8558220267295837 -0.4326159954071045
          0.015634000301361084 0.8850269913673401 -0.46527600288391113 -0.8978490233421326 -0.1965779960155487 -0.39398500323295593
          -0.7613450288772583 -0.5927489995956421 0.2626839876174927 -0.2563230097293854 -0.5652350187301636 0.7840970158576965
          0.5366899967193604 -0.2602570056915283 0.8026400208473206 0.7385150194168091 0.4412359893321991 0.5098099708557129
          0.6604959964752197 0.7437589764595032 0.10279799997806549 0.02359900064766407 0.8795729875564575 -0.475178986787796
          -0.6256170272827148 0.5095509886741638 -0.5907289981842041 -0.8123949766159058 -0.5535299777984619 -0.18335500359535217
          0.838021993637085 0.4738050103187561 0.27060800790786743 0.9363430142402649 0.07255999743938446 -0.34350600838661194
          0.8468779921531677 0.3480609953403473 -0.40205898880958557 0.18734100461006165 0.4698289930820465 -0.8626499772071838
          -0.23837999999523163 0.26849499344825745 -0.9333199858665466 -0.7787250280380249 0.09285499900579453 -0.6204550266265869
          -0.9149129986763 -0.2818869948387146 -0.28891700506210327 -0.30314400792121887 -0.45778998732566833 0.835781991481781
          0.9981499910354614 -0.008967000059783459 -0.06013600155711174 0.7578909993171692 0.1952980011701584 -0.6224629878997803
          -0.9154639840126038 -0.07211499661207199 -0.39588600397109985 -0.9643080234527588 0.006572000216692686 0.2647010087966919
          -0.5543270111083984 -0.007801000028848648 -0.8322629928588867 0.9545860290527344 -0.022578999400138855 0.29708001017570496
          0.4293529987335205 0.035801999270915985 0.9024270176887512 0.9092370271682739 -0.13628900051116943 -0.3933359980583191
          0.9331089854240417 -0.2597520053386688 -0.24866999685764313 0.30605700612068176 -0.19027799367904663 -0.9328039884567261
          -0.3805440068244934 -0.36268600821495056 -0.8506730198860168 -0.23576399683952332 -0.40748101472854614 -0.8822550177574158
          0.21627600491046906 -0.38780099153518677 0.8960109949111938 -0.2626110017299652 -0.6526439785957336 0.7106969952583313
          0.34471800923347473 -0.7648630142211914 0.5442000031471252 -0.6000940203666687 0.0230919998139143 0.7995960116386414
          -0.7471680045127869 -0.11106300354003906 0.6552900075912476 -0.7350350022315979 -0.6544550061225891 0.17723700404167175
          -0.48446300625801086 -0.7952449917793274 0.364529013633728 0.08520100265741348 0.6588749885559082 0.7474110126495361
          -0.8946080207824707 0.34606799483299255 0.28269100189208984 -0.9910600185394287 0.012451999820768833 0.13283400237560272
          -0.6915169954299927 -0.6005579829216003 0.40141499042510986 -0.9390519857406616 -0.3279449939727783 0.10311999917030334
          -0.10943199694156647 0.803846001625061 0.5846840143203735 -0.9878270030021667 -0.11108099669218063 -0.10889600217342377
          -0.9148420095443726 0.2914060056209564 -0.27954599261283875 -0.08678100258111954 0.9391840100288391 0.33226799964904785
          0.8518199920654297 0.5236390233039856 -0.014295999892055988 -0.7934529781341553 -0.6078580021858215 -0.030671000480651855
          0.9783279895782471 -0.15953899919986725 -0.1319890022277832 0.8850880265235901 0.13682599365711212 0.44485801458358765
          0.904932975769043 0.4107469916343689 0.1112779974937439 0.8525689840316772 -0.3714959919452667 0.3675830066204071
          0.5101919770240784 -0.8594740033149719 0.03176499903202057 -0.047506000846624374 -0.9925010204315186 0.11263100057840347
          0.7100350260734558 -0.5086249709129333 0.48698100447654724 0.8163310289382935 0.20535600185394287 0.5398449897766113
          0.962460994720459 -0.24214699864387512 0.12261000275611877 0.9852250218391418 -0.043928999453783035 -0.16553400456905365
          0.9307850003242493 0.3407529890537262 0.13239100575447083 -0.8485260009765625 0.12108500301837921 -0.5151140093803406
          -0.8506579995155334 -0.40959200263023376 -0.3295699954032898 -0.2513960003852844 -0.4968410134315491 -0.8306319713592529
          -0.03379900008440018 0.1604059934616089 -0.9864720106124878 0.8250830173492432 -0.5627750158309937 0.05022500082850456
          0.6565319895744324 0.7443580031394958 0.12205000221729279 -0.07677199691534042 -0.876380980014801 -0.4754610061645508
          0.6699720025062561 -0.2260729968547821 -0.7071269750595093 0.7348610162734985 0.29648101329803467 -0.6099820137023926
          0.8722739815711975 0.4428209960460663 -0.20747999846935272 0.7501959800720215 0.6210500001907349 -0.22694100439548492
          0.8930320143699646 0.2408909946680069 0.3800869882106781 0.8089290261268616 0.001829999964684248 -0.5879030227661133
          -0.4393639862537384 0.052685998380184174 -0.896763026714325 -0.9114109873771667 0.035395000129938126 -0.40997299551963806
          -0.8798589706420898 0.09010899811983109 0.4666129946708679 0.5374270081520081 0.03229700028896332 0.8426920175552368
          0.7253479957580566 0.013743000105023384 0.6882449984550476 0.9325180053710938 -0.009304000064730644 0.3610050082206726
          -0.10938800126314163 -0.10239599645137787 -0.9887109994888306 -0.9998679757118225 0.012121999636292458 -0.010820000432431698
          -0.6194779872894287 0.050620000809431076 0.7833799719810486 0.4023689925670624 -0.11331599950790405 0.9084380269050598
          0.21627600491046906 -0.38780099153518677 0.8960109949111938 -0.2626110017299652 -0.6526439785957336 0.7106969952583313
          0.34471800923347473 -0.7648630142211914 0.5442000031471252 -0.6000940203666687 0.0230919998139143 0.7995960116386414
          -0.7471680045127869 -0.11106300354003906 0.6552900075912476 -0.7350350022315979 -0.6544550061225891 0.17723700404167175
          -0.7350350022315979 -0.6544550061225891 0.17723700404167175 -0.7196490168571472 -0.6891210079193115 0.08495800197124481
          0.08520100265741348 0.6588749885559082 0.7474110126495361 -0.9910600185394287 0.012451999820768833 0.13283400237560272
          -0.6915169954299927 -0.6005579829216003 0.40141499042510986 -0.6915169954299927 -0.6005579829216003 0.40141499042510986
          -0.10943199694156647 0.803846001625061 0.5846840143203735 -0.9878270030021667 -0.11108099669218063 -0.10889600217342377
          -0.08678100258111954 0.9391840100288391 0.33226799964904785 0.9783279895782471 -0.15953899919986725 -0.1319890022277832
          0.9783279895782471 -0.15953899919986725 -0.1319890022277832 0.962460994720459 -0.24214699864387512 0.12261000275611877
          0.962460994720459 -0.24214699864387512 0.12261000275611877 0.9307850003242493 0.3407529890537262 0.13239100575447083
          -0.46792298555374146 0.33673200011253357 -0.8171039819717407 0.9325180053710938 -0.009304000064730644 0.3610050082206726
          -0.7471680045127869 -0.11106300354003906 0.6552900075912476 -0.6915169954299927 -0.6005579829216003 0.40141499042510986
          0.9783279895782471 -0.15953899919986725 -0.1319890022277832 0.962460994720459 -0.24214699864387512 0.12261000275611877
          0.9783279895782471 -0.15953899919986725 -0.1319890022277832 0.962460994720459 -0.24214699864387512 0.12261000275611877
          0.962460994720459 -0.24214699864387512 0.12261000275611877 0.962460994720459 -0.24214699864387512 0.12261000275611877
          0.21627600491046906 -0.38780099153518677 0.8960109949111938 0.34471800923347473 -0.7648630142211914 0.5442000031471252
          -0.48446300625801086 -0.7952449917793274 0.364529013633728 -0.6915169954299927 -0.6005579829216003 0.40141499042510986
          0.7501959800720215 0.6210500001907349 -0.22694100439548492 0.8930320143699646 0.2408909946680069 0.3800869882106781
          -0.10943199694156647 0.803846001625061 0.5846840143203735 0.5374270081520081 0.03229700028896332 0.8426920175552368
          -0.4393639862537384 0.052685998380184174 -0.896763026714325 -0.10938800126314163 -0.10239599645137787 -0.9887109994888306
          -0.8904719948768616 -0.4247489869594574 0.16323800384998322 -0.8904719948768616 -0.4247489869594574 0.16323800384998322
          0.7100350260734558 -0.5086249709129333 0.48698100447654724 0.34471800923347473 -0.7648630142211914 0.5442000031471252
          0.904932975769043 0.4107469916343689 0.1112779974937439 -0.08678100258111954 0.9391840100288391 0.33226799964904785
          -0.047506000846624374 -0.9925010204315186 0.11263100057840347 -0.48446300625801086 -0.7952449917793274 0.364529013633728
          -0.46792298555374146 0.33673200011253357 -0.8171039819717407 -0.9148420095443726 0.2914060056209564 -0.27954599261283875
          -0.9148420095443726 0.2914060056209564 -0.27954599261283875 -0.08678100258111954 0.9391840100288391 0.33226799964904785
          -0.7934529781341553 -0.6078580021858215 -0.030671000480651855 0.21627600491046906 -0.38780099153518677 0.8960109949111938
          0.6960729956626892 0.685778021812439 -0.2125840038061142 0.8163310289382935 0.20535600185394287 0.5398449897766113
          0.8850880265235901 0.13682599365711212 0.44485801458358765 0.8722739815711975 0.4428209960460663 -0.20747999846935272
          -0.9154639840126038 -0.07211499661207199 -0.39588600397109985 -0.9154639840126038 -0.07211499661207199 -0.39588600397109985
          0.4293529987335205 0.035801999270915985 0.9024270176887512 0.4293529987335205 0.035801999270915985 0.9024270176887512
          -0.8123949766159058 -0.5535299777984619 -0.18335500359535217 0.9363430142402649 0.07255999743938446 -0.34350600838661194
          0.4293529987335205 0.035801999270915985 0.9024270176887512 -0.8485260009765625 0.12108500301837921 -0.5151140093803406
          0.7253479957580566 0.013743000105023384 0.6882449984550476 0.8850880265235901 0.13682599365711212 0.44485801458358765
          0.904932975769043 0.4107469916343689 0.1112779974937439 -0.047506000846624374 -0.9925010204315186 0.11263100057840347
          0.5101919770240784 -0.8594740033149719 0.03176499903202057 0.8250830173492432 -0.5627750158309937 0.05022500082850456
          0.8250830173492432 -0.5627750158309937 0.05022500082850456 -0.07677199691534042 -0.876380980014801 -0.4754610061645508
          -0.8506579995155334 -0.40959200263023376 -0.3295699954032898 -0.9154639840126038 -0.07211499661207199 -0.39588600397109985
          <InformationKey name="L2_NORM_RANGE" location="vtkDataArray" length="2">
            <Value index="0">
              0.99999934161
            </Value>
            <Value index="1">
              1.0000005346
            </Value>
          </InformationKey>
        </DataArray>
      </PointData>
      <CellData>
      </CellData>
      <Points>
        <DataArray type="Float32" Name="Points" NumberOfComponents="3" format="ascii" RangeMin="0.01949054569269984" RangeMax="0.3039572017877309">
          -0.003244000021368265 0.022144999355077744 0.007029000204056501 -0.010928000323474407 0.009649000130593777 0.017587000504136086
          -0.0024270000867545605 0.01944899931550026 0.01233499962836504 -0.017597999423742294 0.015852000564336777 -0.002461999887600541
          0.0012329999590292573 0.010929999873042107 0.020080000162124634 0.0027389999013394117 0.0234179999679327 0.0026390000712126493
          -0.003992999903857708 0.021530000492930412 -0.010592999868094921 -0.01815599948167801 0.012354999780654907 -0.008205999620258808
          -0.022898999974131584 0.0024250000715255737 0.002319999970495701 -0.018076999112963676 -0.002901999978348613 0.01425000000745058
          -0.005921999923884869 -0.000901999999769032 0.022249000146985054 0.011548999696969986 0.02134699933230877 -0.004581000190228224
          0.00043399998685345054 0.020121000707149506 -0.014290999621152878 -0.022445999085903168 -0.000707999977748841 -0.001879999996162951
          -0.017680000513792038 -0.007625999860465527 0.011885000392794609 -0.004087999928742647 -0.008183999918401241 0.021088000386953354
          0.011398999951779842 0.00041199999395757914 0.0190459992736578 0.01551899965852499 0.015314999967813492 0.008919999934732914
          0.012083999812602997 0.02080499939620495 -0.005781000014394522 0.004267999902367592 0.017596999183297157 -0.02078299969434738
          -0.00926399976015091 0.012481000274419785 -0.017273999750614166 -0.018456000834703445 -0.005989000201225281 -0.001841000048443675
          0.020082000643014908 0.010297000408172607 0.004428999964147806 0.016555000096559525 0.007919000461697578 -0.010460999794304371
          0.016959000378847122 0.011885000392794609 -0.015337999910116196 0.007395999971777201 0.012196999974548817 -0.025325000286102295
          -0.003283000085502863 0.008705000393092632 -0.02637699991464615 -0.013736999593675137 0.0016479999758303165 -0.02250099927186966
          -0.016766000539064407 -0.004062999971210957 -0.016964999958872795 -0.002202000003308058 -0.020116999745368958 0.011343000456690788
          0.025735000148415565 0.0033629999961704016 -0.0036440000403672457 0.02401999942958355 0.006002999842166901 -0.0071840002201497555
          -0.007796999998390675 -0.04269799962639809 -0.00522099994122982 -0.007102999836206436 -0.07095299661159515 0.003237999975681305
          -0.003478999948129058 -0.0962890014052391 -0.00940600037574768 0.008569000288844109 -0.11948499828577042 0.004240000154823065
          0.0028750000055879354 -0.11882899701595306 0.011928999796509743 0.017201000824570656 -0.003260999917984009 -0.017416000366210938
          0.013915999792516232 -0.014015999622642994 -0.007849999703466892 0.006756999995559454 -0.0057299998588860035 -0.024423999711871147
          -0.007992999628186226 -0.006661000195890665 -0.024288000538945198 -0.0007379999733529985 -0.019968999549746513 -0.018285999074578285
          -0.0013070000568404794 -0.28514599800109863 0.0432949997484684 -0.0008759999764151871 -0.29048600792884827 0.04144899919629097
          0.011528999544680119 -0.3012999892234802 0.02818799950182438 -0.0026599999982863665 -0.2830829918384552 0.043811000883579254
          -0.004631999880075455 -0.2857320010662079 0.04188600182533264 -0.005840000230818987 -0.28533700108528137 0.036743998527526855
          0.001643999945372343 -0.3028849959373474 0.02545499987900257 -0.000048000001697801054 -0.27547600865364075 0.040748998522758484
          -0.005836999975144863 -0.27537399530410767 0.032871998846530914 -0.004980000201612711 -0.28316301107406616 0.03049599938094616
          -0.004352000076323748 -0.2862919867038727 0.025248000398278236 -0.004437999799847603 -0.2970989942550659 0.022931000217795372
          -0.00021899999410379678 -0.27031999826431274 0.033987000584602356 -0.005404999945312738 -0.2911370098590851 0.020941000431776047
          -0.003258999902755022 -0.28859999775886536 0.015177999623119831 0.004226999823004007 -0.2799629867076874 0.012833000160753727
          0.009712999686598778 -0.27848300337791443 0.024464000016450882 0.000623999978415668 -0.27419599890708923 0.011629999615252018
          0.0005430000019259751 -0.2695159912109375 0.019547000527381897 0.017580000683665276 -0.28938499093055725 0.026863999664783478
          0.013171999715268612 -0.2858720123767853 0.009064000099897385 0.017085000872612 -0.2948650121688843 0.027418000623583794
          0.009531999938189983 -0.2981100082397461 0.004600000102072954 0.0039809998124837875 -0.2985979914665222 0.007253999821841717
          0.005384000018239021 -0.2915320098400116 0.03775399923324585 0.006180000025779009 -0.28073999285697937 0.038444001227617264
          0.006736000068485737 -0.26483699679374695 0.016813000664114952 0.006186000071465969 -0.2623380124568939 0.012122999876737595
          0.005615000147372484 -0.2717280089855194 0.02774900011718273 -0.0093560004606843 -0.265051007270813 -0.011088999919593334
          -0.005375999957323074 -0.2914679944515228 -0.010360999964177608 0.0017170000355690718 -0.29023000597953796 -0.018066000193357468
          -0.00033000000985339284 -0.2818300127983093 -0.020771000534296036 0.015576999634504318 -0.2953450083732605 -0.006527000106871128
          0.013094999827444553 -0.2811819911003113 -0.0067460001446306705 0.0067819999530911446 -0.2996949851512909 -0.010843000374734402
          0.014112000353634357 -0.29109299182891846 -0.01613299921154976 0.014688000082969666 -0.28573399782180786 -0.015138000249862671
          0.002939000027254224 -0.2745009958744049 -0.008290000259876251 0.006099000107496977 -0.28015100955963135 0.017542999237775803
          0.006000000052154064 -0.2610200047492981 0.015901999548077583 0.001550000044517219 -0.2457839995622635 0.0014979999978095293
          -0.010525000281631947 -0.22654099762439728 -0.003324999939650297 -0.01344399992376566 -0.19307099282741547 0.004459999967366457
          -0.012462999671697617 -0.1929209977388382 0.012504000216722488 0.002633000025525689 -0.19335399568080902 0.014929999597370625
          0.0034080001059919596 -0.22669300436973572 0.01331700012087822 0.007424999959766865 -0.15073400735855103 0.007848000153899193
          0.00028899998869746923 -0.15132999420166016 -0.0050559998489916325 -0.01017099991440773 -0.1476069986820221 0.0037159998901188374
          -0.008081000298261642 -0.14824099838733673 0.01206700038164854 0.00007300000288523734 -0.2825169861316681 0.042840998619794846
          -0.0013070000568404794 -0.28514599800109863 0.0432949997484684 -0.0008759999764151871 -0.29048600792884827 0.04144899919629097
          0.011528999544680119 -0.3012999892234802 0.02818799950182438 -0.0026599999982863665 -0.2830829918384552 0.043811000883579254
          -0.004631999880075455 -0.2857320010662079 0.04188600182533264 -0.005840000230818987 -0.28533700108528137 0.036743998527526855
          -0.005840000230818987 -0.28533700108528137 0.036743998527526855 -0.004656000062823296 -0.28503599762916565 0.03141099959611893
          -0.000048000001697801054 -0.27547600865364075 0.040748998522758484 -0.004980000201612711 -0.28316301107406616 0.03049599938094616
          -0.004352000076323748 -0.2862919867038727 0.025248000398278236 -0.004352000076323748 -0.2862919867038727 0.025248000398278236
          -0.00021899999410379678 -0.27031999826431274 0.033987000584602356 -0.005404999945312738 -0.2911370098590851 0.020941000431776047
          0.004226999823004007 -0.2799629867076874 0.012833000160753727 0.0005430000019259751 -0.2695159912109375 0.019547000527381897
          0.0005430000019259751 -0.2695159912109375 0.019547000527381897 0.006736000068485737 -0.26483699679374695 0.016813000664114952
          0.006736000068485737 -0.26483699679374695 0.016813000664114952 0.005615000147372484 -0.2717280089855194 0.02774900011718273
          -0.007666999939829111 -0.26089999079704285 -0.01042800024151802 0.007424999959766865 -0.15073400735855103 0.007848000153899193
          -0.004631999880075455 -0.2857320010662079 0.04188600182533264 -0.004352000076323748 -0.2862919867038727 0.025248000398278236
          0.0005430000019259751 -0.2695159912109375 0.019547000527381897 0.006736000068485737 -0.26483699679374695 0.016813000664114952
          0.0005430000019259751 -0.2695159912109375 0.019547000527381897 0.006736000068485737 -0.26483699679374695 0.016813000664114952
          0.006736000068485737 -0.26483699679374695 0.016813000664114952 0.006736000068485737 -0.26483699679374695 0.016813000664114952
          -0.0013070000568404794 -0.28514599800109863 0.0432949997484684 0.011528999544680119 -0.3012999892234802 0.02818799950182438
          0.001643999945372343 -0.3028849959373474 0.02545499987900257 -0.004352000076323748 -0.2862919867038727 0.025248000398278236
          0.006099000107496977 -0.28015100955963135 0.017542999237775803 0.006000000052154064 -0.2610200047492981 0.015901999548077583
          -0.00021899999410379678 -0.27031999826431274 0.033987000584602356 0.002633000025525689 -0.19335399568080902 0.014929999597370625
          -0.010525000281631947 -0.22654099762439728 -0.003324999939650297 0.00028899998869746923 -0.15132999420166016 -0.0050559998489916325
          -0.007009999826550484 -0.2930949926376343 -0.0007309999782592058 -0.007009999826550484 -0.2930949926376343 -0.0007309999782592058
          0.005384000018239021 -0.2915320098400116 0.03775399923324585 0.011528999544680119 -0.3012999892234802 0.02818799950182438
          0.013171999715268612 -0.2858720123767853 0.009064000099897385 0.004226999823004007 -0.2799629867076874 0.012833000160753727
          0.0039809998124837875 -0.2985979914665222 0.007253999821841717 0.001643999945372343 -0.3028849959373474 0.02545499987900257
          -0.007666999939829111 -0.26089999079704285 -0.01042800024151802 -0.003258999902755022 -0.28859999775886536 0.015177999623119831
          -0.003258999902755022 -0.28859999775886536 0.015177999623119831 0.004226999823004007 -0.2799629867076874 0.012833000160753727
          0.000623999978415668 -0.27419599890708923 0.011629999615252018 -0.0013070000568404794 -0.28514599800109863 0.0432949997484684
          0.009638999588787556 -0.27844300866127014 0.02445800043642521 0.006180000025779009 -0.28073999285697937 0.038444001227617264
          0.017580000683665276 -0.28938499093055725 0.026863999664783478 0.002939000027254224 -0.2745009958744049 -0.008290000259876251
          -0.007796999998390675 -0.04269799962639809 -0.00522099994122982 -0.007796999998390675 -0.04269799962639809 -0.00522099994122982
          0.0028750000055879354 -0.11882899701595306 0.011928999796509743 0.0028750000055879354 -0.11882899701595306 0.011928999796509743
          -0.018456000834703445 -0.005989000201225281 -0.001841000048443675 0.016555000096559525 0.007919000461697578 -0.010460999794304371
          0.0028750000055879354 -0.11882899701595306 0.011928999796509743 -0.0093560004606843 -0.265051007270813 -0.011088999919593334
          0.0034080001059919596 -0.22669300436973572 0.01331700012087822 0.017580000683665276 -0.28938499093055725 0.026863999664783478
          0.013171999715268612 -0.2858720123767853 0.009064000099897385 0.0039809998124837875 -0.2985979914665222 0.007253999821841717
          0.009531999938189983 -0.2981100082397461 0.004600000102072954 0.015576999634504318 -0.2953450083732605 -0.006527000106871128
          0.015576999634504318 -0.2953450083732605 -0.006527000106871128 0.0067819999530911446 -0.2996949851512909 -0.010843000374734402
          -0.005375999957323074 -0.2914679944515228 -0.010360999964177608 -0.007796999998390675 -0.04269799962639809 -0.00522099994122982
          <InformationKey name="L2_NORM_RANGE" location="vtkDataArray" length="2">
            <Value index="0">
              0.019490545693
            </Value>
            <Value index="1">
              0.30395720179
            </Value>
          </InformationKey>
        </DataArray>
      </Points>
      <Verts>
        <DataArray type="Int64" Name="connectivity" format="ascii" RangeMin="1e+299" RangeMax="-1e+299">
        </DataArray>
        <DataArray type="Int64" Name="offsets" format="ascii" RangeMin="1e+299" RangeMax="-1e+299">
        </DataArray>
      </Verts>
      <Lines>
        <DataArray type="Int64" Name="connectivity" format="ascii" RangeMin="1e+299" RangeMax="-1e+299">
        </DataArray>
        <DataArray type="Int64" Name="offsets" format="ascii" RangeMin="1e+299" RangeMax="-1e+299">
        </DataArray>
      </Lines>
      <Strips>
        <DataArray type="Int64" Name="connectivity" format="ascii" RangeMin="1e+299" RangeMax="-1e+299">
        </DataArray>
        <DataArray type="Int64" Name="offsets" format="ascii" RangeMin="1e+299" RangeMax="-1e+299">
        </DataArray>
      </Strips>
      <Polys>
        <DataArray type="Int64" Name="connectivity" format="ascii" RangeMin="0" RangeMax="169">
          3 6 0 1 10 9
          4 10 1 6 11 0
          3 7 6 8 7 3
          4 16 10 17 16 4
          2 17 4 18 17 2
          5 18 2 6 12 11
          7 12 6 8 13 7
          14 13 8 9 14 8
          15 14 9 10 15 9
          16 15 10 12 23 11
          12 19 23 7 19 12
          7 20 19 13 20 7
          13 156 20 14 156 13
          15 29 14 16 29 15
          17 22 16 18 22 17
          19 24 23 19 25 24
          20 25 19 20 26 25
          20 27 26 20 28 27
          156 28 20 14 29 156
          22 30 16 22 31 30
          18 31 22 18 157 31
          2 1 0 4 1 2
          8 1 9 3 1 8
          0 1 3 32 38 41
          21 169 41 29 152 156
          32 33 38 36 33 153
          29 154 152 16 155 29
          35 158 16 38 35 16
          34 90 38 33 34 38
          40 21 41 28 21 40
          38 16 30 37 30 31
          157 37 31 24 37 157
          37 38 30 39 37 24
          25 39 24 26 39 25
          40 39 26 27 40 26
          28 40 27 41 38 37
          39 41 37 40 41 39
          46 45 93 100 116 42
          95 47 94 136 47 95
          127 47 136 125 127 136
          126 104 96 50 49 97
          98 50 97 51 50 98
          52 51 98 101 105 99
          126 53 104 50 54 49
          107 50 51 117 55 103
          53 107 104 107 59 50
          144 59 107 143 145 146
          134 57 56 159 57 134
          59 159 50 57 159 59
          62 44 161 62 48 44
          140 48 62 64 140 62
          65 53 141 144 107 53
          65 144 53 135 144 65
          67 148 147 148 43 147
          150 137 148 148 66 43
          137 66 148 150 63 137
          149 102 106 70 149 106
          68 70 106 60 113 119
          69 110 112 149 124 102
          70 58 149 118 58 70
          54 50 71 72 159 134
          74 159 72 142 159 74
          72 134 163 74 72 73
          73 72 77 78 73 77
          79 73 78 74 73 79
          142 74 79 164 166 72
          62 75 64 62 76 75
          80 76 62 165 167 168
          78 77 75 79 78 75
          76 79 75 80 79 76
          80 142 79 80 62 111
          72 163 164 138 139 123
          81 108 162 61 81 162
          81 121 108 109 122 128
          61 120 81 68 106 82
          114 68 83 114 151 68
          83 82 89 84 83 90
          71 132 85 86 71 85
          54 71 86 87 54 86
          88 130 131 83 68 82
          84 114 83 88 129 130
          38 83 89 90 83 38
          85 132 133 86 85 133
          91 86 133 87 86 91
          92 87 91 115 160 87
          91 133 34 33 91 34
          92 91 33 36 92 33
          87 92 36 115 87 36
        </DataArray>
        <DataArray type="Int64" Name="offsets" format="ascii" RangeMin="3" RangeMax="528">
          3 6 9 12 15 18
          21 24 27 30 33 36
          39 42 45 48 51 54
          57 60 63 66 69 72
          75 78 81 84 87 90
          93 96 99 102 105 108
          111 114 117 120 123 126
          129 132 135 138 141 144
          147 150 153 156 159 162
          165 168 171 174 177 180
          183 186 189 192 195 198
          201 204 207 210 213 216
          219 222 225 228 231 234
          237 240 243 246 249 252
          255 258 261 264 267 270
          273 276 279 282 285 288
          291 294 297 300 303 306
          309 312 315 318 321 324
          327 330 333 336 339 342
          345 348 351 354 357 360
          363 366 369 372 375 378
          381 384 387 390 393 396
          399 402 405 408 411 414
          417 420 423 426 429 432
          435 438 441 444 447 450
          453 456 459 462 465 468
          471 474 477 480 483 486
          489 492 495 498 501 504
          507 510 513 516 519 522
          525 528
        </DataArray>
      </Polys>
    </Piece>
  </PolyData>
</VTKFile>
