<?xml version="1.0"?>
<VTKFile type="PolyData" version="0.1" byte_order="LittleEndian" header_type="UInt32" compressor="vtkZLibDataCompressor">
  <PolyData>
    <Piece NumberOfPoints="137" NumberOfVerts="0" NumberOfLines="0" NumberOfStrips="0" NumberOfPolys="116">
      <PointData Normals="Normals">
        <DataArray type="Float32" Name="Normals" NumberOfComponents="3" format="ascii" RangeMin="0.9999544914400752" RangeMax="1.0000005615608345">
          -0.09574499726295471 0.9770190119743347 0.19044099748134613 -0.29612600803375244 -0.926069974899292 -0.23388800024986267
          -0.20203299820423126 -0.8421480059623718 0.4999699890613556 0.3314110040664673 -0.7311729788780212 0.5962830185890198
          0.588545024394989 -0.6757310032844543 -0.44384899735450745 -0.7570019960403442 -0.6524249911308289 0.03592300042510033
          -0.2846910059452057 -0.8608279824256897 -0.4218130111694336 0.09205000102519989 -0.9638519883155823 0.25003400444984436
          -0.834388017654419 -0.5426999926567078 -0.0962970033288002 -0.9647589921951294 -0.24005000293254852 -0.10778000205755234
          -0.10087300091981888 -0.9941669702529907 -0.03816499933600426 -0.849494993686676 -0.4549970030784607 0.26708799600601196
          -0.042688000947237015 -0.7242730259895325 0.6881909966468811 0.4751800000667572 -0.6012910008430481 0.6423810124397278
          0.2907649874687195 0.9530540108680725 -0.08452499657869339 0.2089329957962036 -0.011793999932706356 0.9778590202331543
          0.056529998779296875 -0.17228500545024872 0.9834240078926086 0.6687210202217102 0.4419179856777191 0.5979310274124146
          0.9973750114440918 -0.04836700111627579 -0.053895000368356705 0.7639859914779663 0.29155901074409485 -0.5756030082702637
          0.2465510070323944 -0.3628700077533722 -0.8986309766769409 0.17270800471305847 0.16175000369548798 -0.9716010093688965
          -0.7180219888687134 -0.13095399737358093 -0.6835899949073792 -0.17042499780654907 0.09824500232934952 0.9804610013961792
          0.05153600126504898 -0.005588999949395657 0.9986550211906433 -0.8186579942703247 0.1255970001220703 0.5603790283203125
          -0.12148100137710571 0.019770000129938126 0.9923509955406189 0.03320800140500069 -0.09410499781370163 0.9950079917907715
          0.15482400357723236 -0.04101800173521042 0.987089991569519 0.5081170201301575 -0.022214999422430992 0.8610020279884338
          0.5656939744949341 0.11896800249814987 -0.8159880042076111 -0.9340670108795166 -0.05149399861693382 0.3533639907836914
          0.016582999378442764 -0.04728800058364868 0.998744010925293 0.8277760148048401 0.051701001822948456 0.5586709976196289
          0.5239149928092957 0.18382200598716736 -0.831699013710022 -0.023793000727891922 -0.2064169943332672 0.9781749844551086
          0.7931830286979675 0.06578099727630615 0.6054210066795349 0.9479429721832275 0.2570450007915497 -0.18796899914741516
          0.4504300057888031 0.29758501052856445 -0.8417580127716064 -0.881305992603302 -0.24290600419044495 0.4053359925746918
          0.29538100957870483 -0.25962400436401367 0.9194269776344299 0.44481098651885986 0.20339499413967133 -0.8722230195999146
          -0.18592099845409393 -0.28255701065063477 0.9410600066184998 -0.0692019984126091 -0.15642200410366058 0.9852629899978638
          -0.08448400348424911 -0.4067150056362152 0.9096400141716003 0.9610000252723694 0.24304699897766113 -0.13193699717521667
          -0.47246599197387695 0.07190900295972824 -0.8784109950065613 -0.9504330158233643 0.014696000143885612 0.3105829954147339
          0.05986199900507927 -0.2855690121650696 0.9564869999885559 0.5565329790115356 -0.48716598749160767 0.6730080246925354
          0.5971680283546448 -0.2935590147972107 -0.7464669942855835 -0.9817230105400085 -0.18581999838352203 -0.041120998561382294
          -0.940077006816864 -0.24578699469566345 -0.23631300032138824 -0.5684189796447754 -0.2529209852218628 0.782899022102356
          -0.11580400168895721 -0.13511599600315094 0.9840390086174011 0.0645970031619072 0.011087999679148197 0.9978500008583069
          0.5778430104255676 0.5874710083007812 0.5665469765663147 0.9208899736404419 0.3896450102329254 0.011768000200390816
          0.6439350247383118 0.5132499933242798 -0.5673819780349731 -0.01295199990272522 0.6830019950866699 -0.730301022529602
          -0.8921239972114563 0.45102500915527344 -0.026280000805854797 -0.5053099989891052 0.5382149815559387 0.6745269894599915
          -0.4187760055065155 0.5136119723320007 0.748885989189148 -0.03586599975824356 -0.8748810291290283 0.48300701379776
          -0.03586599975824356 -0.8748810291290283 0.48300701379776 -0.20203299820423126 -0.8421480059623718 0.4999699890613556
          -0.20203299820423126 -0.8421480059623718 0.4999699890613556 0.588545024394989 -0.6757310032844543 -0.44384899735450745
          0.588545024394989 -0.6757310032844543 -0.44384899735450745 -0.2846910059452057 -0.8608279824256897 -0.4218130111694336
          -0.2846910059452057 -0.8608279824256897 -0.4218130111694336 -0.834388017654419 -0.5426999926567078 -0.0962970033288002
          -0.834388017654419 -0.5426999926567078 -0.0962970033288002 -0.9647589921951294 -0.24005000293254852 -0.10778000205755234
          -0.9647589921951294 -0.24005000293254852 -0.10778000205755234 -0.849494993686676 -0.4549970030784607 0.26708799600601196
          -0.849494993686676 -0.4549970030784607 0.26708799600601196 -0.042688000947237015 -0.7242730259895325 0.6881909966468811
          -0.042688000947237015 -0.7242730259895325 0.6881909966468811 0.4751800000667572 -0.6012910008430481 0.6423810124397278
          0.4751800000667572 -0.6012910008430481 0.6423810124397278 0.2089329957962036 -0.011793999932706356 0.9778590202331543
          0.9973750114440918 -0.04836700111627579 -0.053895000368356705 -0.7180219888687134 -0.13095399737358093 -0.6835899949073792
          -0.8863300085067749 0.299237996339798 0.3533779978752136 -0.8863300085067749 0.299237996339798 0.3533779978752136
          -0.8186579942703247 0.1255970001220703 0.5603790283203125 -0.9340670108795166 -0.05149399861693382 0.3533639907836914
          0.8277760148048401 0.051701001822948456 0.5586709976196289 -0.0692019984126091 -0.15642200410366058 0.9852629899978638
          0.05986199900507927 -0.2855690121650696 0.9564869999885559 -0.5684189796447754 -0.2529209852218628 0.782899022102356
          -0.11580400168895721 -0.13511599600315094 0.9840390086174011 0.6439350247383118 0.5132499933242798 -0.5673819780349731
          -0.01295199990272522 0.6830019950866699 -0.730301022529602 -0.5053099989891052 0.5382149815559387 0.6745269894599915
          -0.4187760055065155 0.5136119723320007 0.748885989189148 0.588545024394989 -0.6757310032844543 -0.44384899735450745
          -0.0825209990143776 -0.8238279819488525 -0.5608019828796387 -0.834388017654419 -0.5426999926567078 -0.0962970033288002
          -0.849494993686676 -0.4549970030784607 0.26708799600601196 0.03320800140500069 -0.09410499781370163 0.9950079917907715
          0.016582999378442764 -0.04728800058364868 0.998744010925293 -0.023793000727891922 -0.2064169943332672 0.9781749844551086
          0.3314110040664673 -0.7311729788780212 0.5962830185890198 -0.29612600803375244 -0.926069974899292 -0.23388800024986267
          0.9208899736404419 0.3896450102329254 0.011768000200390816 -0.8863300085067749 0.299237996339798 0.3533779978752136
          -0.042688000947237015 -0.7242730259895325 0.6881909966468811 -0.881305992603302 -0.24290600419044495 0.4053359925746918
          -0.881305992603302 -0.24290600419044495 0.4053359925746918 0.29538100957870483 -0.25962400436401367 0.9194269776344299
          -0.881305992603302 -0.24290600419044495 0.4053359925746918 -0.881305992603302 -0.24290600419044495 0.4053359925746918
          0.4504300057888031 0.29758501052856445 -0.8417580127716064 0.4504300057888031 0.29758501052856445 -0.8417580127716064
          0.7931830286979675 0.06578099727630615 0.6054210066795349 -0.023793000727891922 -0.2064169943332672 0.9781749844551086
          0.5656939744949341 0.11896800249814987 -0.8159880042076111 0.5656939744949341 0.11896800249814987 -0.8159880042076111
          -0.24065400660037994 0.05951400101184845 -0.9687849879264832 0.5778430104255676 0.5874710083007812 0.5665469765663147
          0.0645970031619072 0.011087999679148197 0.9978500008583069 0.44481098651885986 0.20339499413967133 -0.8722230195999146
          0.5565329790115356 -0.48716598749160767 0.6730080246925354 0.5565329790115356 -0.48716598749160767 0.6730080246925354
          0.5971680283546448 -0.2935590147972107 -0.7464669942855835 0.05986199900507927 -0.2855690121650696 0.9564869999885559
          -0.24065400660037994 0.05951400101184845 -0.9687849879264832 0.7639859914779663 0.29155901074409485 -0.5756030082702637
          -0.9504330158233643 0.014696000143885612 0.3105829954147339 0.2089329957962036 -0.011793999932706356 0.9778590202331543
          -0.17042499780654907 0.09824500232934952 0.9804610013961792 0.7639859914779663 0.29155901074409485 -0.5756030082702637
          0.7639859914779663 0.29155901074409485 -0.5756030082702637 0.05153600126504898 -0.005588999949395657 0.9986550211906433
          0.5081170201301575 -0.022214999422430992 0.8610020279884338
          <InformationKey name="L2_NORM_RANGE" location="vtkDataArray" length="2">
            <Value index="0">
              0.99995449144
            </Value>
            <Value index="1">
              1.0000005616
            </Value>
          </InformationKey>
        </DataArray>
      </PointData>
      <CellData>
      </CellData>
      <Points>
        <DataArray type="Float32" Name="Points" NumberOfComponents="3" format="ascii" RangeMin="0.005991403150244933" RangeMax="0.24798270577056025">
          -0.005167999770492315 0.0013470000121742487 0.004521000199019909 0.023392999544739723 -0.23329000174999237 -0.019432999193668365
          0.03346699848771095 -0.2351509928703308 -0.01875700056552887 0.04029100015759468 -0.24019299447536469 -0.022154999896883965
          0.04101699963212013 -0.2433210015296936 -0.02465599961578846 0.0361500009894371 -0.2371550053358078 -0.026468999683856964
          0.034970998764038086 -0.23615600168704987 -0.0298909991979599 0.022915000095963478 -0.2327589988708496 -0.027914000675082207
          0.014360000379383564 -0.2339410036802292 -0.03194199874997139 0.014857999980449677 -0.2300730049610138 -0.026204999536275864
          0.018471000716090202 -0.23065300285816193 -0.02355100028216839 0.01063700020313263 -0.23182900249958038 -0.017124999314546585
          0.02262900024652481 -0.23402400314807892 -0.014433999545872211 0.02828899957239628 -0.23398099839687347 -0.01858000084757805
          0.026079000905156136 -0.23208600282669067 -0.024684999138116837 0.028805000707507133 -0.22994600236415863 -0.014878000132739544
          0.035982999950647354 -0.22963200509548187 -0.015371999703347683 0.041933998465538025 -0.22339899837970734 -0.017551999539136887
          0.045850999653339386 -0.22880299389362335 -0.025837000459432602 0.042844999581575394 -0.2239830046892166 -0.02865700051188469
          0.03209900110960007 -0.23039400577545166 -0.03606799989938736 0.03086799941956997 -0.22337700426578522 -0.03689799830317497
          0.013132999651134014 -0.2286050021648407 -0.033805001527071 0.01692900061607361 -0.22957299649715424 -0.012210000306367874
          0.027522999793291092 -0.20833399891853333 -0.019979000091552734 0.018372999504208565 -0.20831599831581116 -0.02223300002515316
          0.028519999235868454 -0.208515003323555 -0.02040800079703331 0.02530200034379959 -0.13925300538539886 -0.017960000783205032
          0.025786999613046646 -0.1663530021905899 -0.015637999400496483 0.03177199885249138 -0.16601000726222992 -0.01679299958050251
          0.02923399955034256 -0.13853499293327332 -0.02544800005853176 0.02013999968767166 -0.1657640039920807 -0.01934099942445755
          0.02648100070655346 -0.16581200063228607 -0.016865000128746033 0.028188999742269516 -0.11453799903392792 -0.013516999781131744
          0.024122999981045723 -0.11360199749469757 -0.023329000920057297 0.013946999795734882 -0.07395900040864944 -0.003978000022470951
          0.022738000378012657 -0.08715099841356277 -0.00848700013011694 0.024102000519633293 -0.08664000034332275 -0.01348899956792593
          0.020913999527692795 -0.08655399829149246 -0.01786400005221367 0.004052000120282173 -0.07376299798488617 -0.008531000465154648
          0.004515000153332949 -0.0469059981405735 -0.002380999969318509 0.007681000046432018 -0.044071998447179794 -0.011169999837875366
          0.0009449999779462814 -0.046448998153209686 0.0010049999691545963 0.01001300010830164 -0.06080999970436096 -0.001221999991685152
          0.004011999815702438 -0.04153899848461151 0.003504999913275242 0.010443000122904778 -0.03277299925684929 -0.004230999853461981
          -0.0024139999877661467 -0.025894999504089355 -0.007759000174701214 -0.005797000136226416 -0.029058000072836876 0.00029399999766610563
          -0.0013180000241845846 -0.005181000102311373 0.0027050001081079245 0.0076870000921189785 -0.004629999864846468 0.007333999965339899
          0.006225999910384417 -0.0021200000774115324 -0.008213999681174755 -0.005663999821990728 -0.011212999932467937 -0.0018850000342354178
          -0.008682000450789928 -0.00532899983227253 -0.0028250000905245543 -0.006451999768614769 -0.006752000190317631 0.005814999807626009
          0.001016999944113195 -0.012016000226140022 0.004689000081270933 -0.0006019999855197966 -0.00011000000085914508 0.009740999899804592
          0.007116000168025494 0.0001990000018849969 0.00761099997907877 0.010042999871075153 0.0007259999983943999 -0.002515000058338046
          0.00816699955612421 0.0022070000413805246 -0.00788000039756298 0.0016599999507889152 0.0024449999909847975 -0.010986000299453735
          -0.009109999984502792 0.0007810000097379088 -0.0023620000574737787 -0.006924999877810478 0.0002690000110305846 0.0062790000811219215
          -0.0006259999936446548 -0.0002209999947808683 0.00982499960809946 0.0280930008739233 -0.23396800458431244 -0.018619999289512634
          0.0280930008739233 -0.23396800458431244 -0.018619999289512634 0.03346699848771095 -0.2351509928703308 -0.01875700056552887
          0.03346699848771095 -0.2351509928703308 -0.01875700056552887 0.04101699963212013 -0.2433210015296936 -0.02465599961578846
          0.04101699963212013 -0.2433210015296936 -0.02465599961578846 0.034970998764038086 -0.23615600168704987 -0.0298909991979599
          0.034970998764038086 -0.23615600168704987 -0.0298909991979599 0.014360000379383564 -0.2339410036802292 -0.03194199874997139
          0.014360000379383564 -0.2339410036802292 -0.03194199874997139 0.014857999980449677 -0.2300730049610138 -0.026204999536275864
          0.014857999980449677 -0.2300730049610138 -0.026204999536275864 0.01063700020313263 -0.23182900249958038 -0.017124999314546585
          0.01063700020313263 -0.23182900249958038 -0.017124999314546585 0.02262900024652481 -0.23402400314807892 -0.014433999545872211
          0.02262900024652481 -0.23402400314807892 -0.014433999545872211 0.02828899957239628 -0.23398099839687347 -0.01858000084757805
          0.02828899957239628 -0.23398099839687347 -0.01858000084757805 0.028805000707507133 -0.22994600236415863 -0.014878000132739544
          0.045850999653339386 -0.22880299389362335 -0.025837000459432602 0.013132999651134014 -0.2286050021648407 -0.033805001527071
          0.011605000123381615 -0.22853800654411316 -0.017849000170826912 0.011605000123381615 -0.22853800654411316 -0.017849000170826912
          0.018372999504208565 -0.20831599831581116 -0.02223300002515316 0.02013999968767166 -0.1657640039920807 -0.01934099942445755
          0.028188999742269516 -0.11453799903392792 -0.013516999781131744 0.01001300010830164 -0.06080999970436096 -0.001221999991685152
          -0.0013180000241845846 -0.005181000102311373 0.0027050001081079245 -0.006451999768614769 -0.006752000190317631 0.005814999807626009
          0.001016999944113195 -0.012016000226140022 0.004689000081270933 0.00816699955612421 0.0022070000413805246 -0.00788000039756298
          0.0016599999507889152 0.0024449999909847975 -0.010986000299453735 -0.006924999877810478 0.0002690000110305846 0.0062790000811219215
          -0.0006259999936446548 -0.0002209999947808683 0.00982499960809946 0.04101699963212013 -0.2433210015296936 -0.02465599961578846
          0.039329998195171356 -0.240556001663208 -0.02755500003695488 0.014360000379383564 -0.2339410036802292 -0.03194199874997139
          0.01063700020313263 -0.23182900249958038 -0.017124999314546585 0.02530200034379959 -0.13925300538539886 -0.017960000783205032
          0.02648100070655346 -0.16581200063228607 -0.016865000128746033 0.013946999795734882 -0.07395900040864944 -0.003978000022470951
          0.04029100015759468 -0.24019299447536469 -0.022154999896883965 0.023392999544739723 -0.23329000174999237 -0.019432999193668365
          0.010042999871075153 0.0007259999983943999 -0.002515000058338046 0.011605000123381615 -0.22853800654411316 -0.017849000170826912
          0.02262900024652481 -0.23402400314807892 -0.014433999545872211 0.004052000120282173 -0.07376299798488617 -0.008531000465154648
          0.004052000120282173 -0.07376299798488617 -0.008531000465154648 0.004515000153332949 -0.0469059981405735 -0.002380999969318509
          0.004052000120282173 -0.07376299798488617 -0.008531000465154648 0.004052000120282173 -0.07376299798488617 -0.008531000465154648
          0.020913999527692795 -0.08655399829149246 -0.01786400005221367 0.020913999527692795 -0.08655399829149246 -0.01786400005221367
          0.022738000378012657 -0.08715099841356277 -0.00848700013011694 0.013946999795734882 -0.07395900040864944 -0.003978000022470951
          0.02923399955034256 -0.13853499293327332 -0.02544800005853176 0.02923399955034256 -0.13853499293327332 -0.02544800005853176
          0.025358999148011208 -0.16550999879837036 -0.027262000367045403 0.007116000168025494 0.0001990000018849969 0.00761099997907877
          -0.0006019999855197966 -0.00011000000085914508 0.009740999899804592 0.007681000046432018 -0.044071998447179794 -0.011169999837875366
          0.0076870000921189785 -0.004629999864846468 0.007333999965339899 0.0076870000921189785 -0.004629999864846468 0.007333999965339899
          0.006225999910384417 -0.0021200000774115324 -0.008213999681174755 -0.0013180000241845846 -0.005181000102311373 0.0027050001081079245
          0.025358999148011208 -0.16550999879837036 -0.027262000367045403 0.042844999581575394 -0.2239830046892166 -0.02865700051188469
          -0.005797000136226416 -0.029058000072836876 0.00029399999766610563 0.028805000707507133 -0.22994600236415863 -0.014878000132739544
          0.01692900061607361 -0.22957299649715424 -0.012210000306367874 0.042844999581575394 -0.2239830046892166 -0.02865700051188469
          0.042844999581575394 -0.2239830046892166 -0.02865700051188469 0.027522999793291092 -0.20833399891853333 -0.019979000091552734
          0.03177199885249138 -0.16601000726222992 -0.01679299958050251
          <InformationKey name="L2_NORM_RANGE" location="vtkDataArray" length="2">
            <Value index="0">
              0.0059914031502
            </Value>
            <Value index="1">
              0.24798270577
            </Value>
          </InformationKey>
        </DataArray>
      </Points>
      <Verts>
        <DataArray type="Int64" Name="connectivity" format="ascii" RangeMin="1e+299" RangeMax="-1e+299">
        </DataArray>
        <DataArray type="Int64" Name="offsets" format="ascii" RangeMin="1e+299" RangeMax="-1e+299">
        </DataArray>
      </Verts>
      <Lines>
        <DataArray type="Int64" Name="connectivity" format="ascii" RangeMin="1e+299" RangeMax="-1e+299">
        </DataArray>
        <DataArray type="Int64" Name="offsets" format="ascii" RangeMin="1e+299" RangeMax="-1e+299">
        </DataArray>
      </Lines>
      <Strips>
        <DataArray type="Int64" Name="connectivity" format="ascii" RangeMin="1e+299" RangeMax="-1e+299">
        </DataArray>
        <DataArray type="Int64" Name="offsets" format="ascii" RangeMin="1e+299" RangeMax="-1e+299">
        </DataArray>
      </Strips>
      <Polys>
        <DataArray type="Int64" Name="connectivity" format="ascii" RangeMin="0" RangeMax="136">
          122 0 121 121 0 106
          106 0 93 93 0 94
          94 0 60 104 1 2
          5 105 3 4 5 3
          6 5 4 8 5 6
          7 5 8 10 7 8
          9 10 8 11 10 9
          12 10 11 13 10 12
          64 14 66 66 14 68
          68 14 70 70 14 72
          72 14 74 74 14 76
          76 14 78 78 14 80
          24 16 15 17 16 24
          19 18 17 21 20 129
          22 20 21 131 23 84
          16 63 15 16 65 63
          16 97 65 17 97 16
          18 97 17 129 67 82
          20 67 129 20 69 98
          20 99 69 22 99 20
          25 71 83 25 73 71
          100 73 25 107 108 75
          132 77 85 81 77 132
          81 79 77 128 21 129
          128 22 21 19 17 24
          25 83 30 26 84 86
          26 131 84 29 135 28
          133 135 29 120 134 136
          31 25 30 32 86 87
          26 86 32 29 28 101
          33 29 101 120 136 88
          118 120 88 43 32 87
          27 102 103 118 88 34
          33 101 117 113 116 35
          37 116 113 115 37 113
          36 33 117 34 88 116
          37 34 116 115 34 37
          119 34 114 39 30 38
          31 30 39 43 87 110
          113 35 111 45 112 40
          41 112 45 47 109 123
          42 110 130 43 110 42
          40 89 42 45 40 44
          44 42 130 40 42 44
          41 45 126 46 123 50
          47 123 46 54 44 130
          59 51 50 52 51 59
          53 51 52 54 51 53
          90 92 91 45 44 48
          125 45 48 126 45 49
          51 46 50 47 46 51
          54 130 51 0 61 60
          62 61 0 124 127 55
          56 124 55 57 124 56
          50 124 57 58 50 57
          59 50 58 60 52 59
          53 52 60 61 53 60
          90 91 95 96 90 95
        </DataArray>
        <DataArray type="Int64" Name="offsets" format="ascii" RangeMin="3" RangeMax="348">
          3 6 9 12 15 18
          21 24 27 30 33 36
          39 42 45 48 51 54
          57 60 63 66 69 72
          75 78 81 84 87 90
          93 96 99 102 105 108
          111 114 117 120 123 126
          129 132 135 138 141 144
          147 150 153 156 159 162
          165 168 171 174 177 180
          183 186 189 192 195 198
          201 204 207 210 213 216
          219 222 225 228 231 234
          237 240 243 246 249 252
          255 258 261 264 267 270
          273 276 279 282 285 288
          291 294 297 300 303 306
          309 312 315 318 321 324
          327 330 333 336 339 342
          345 348
        </DataArray>
      </Polys>
    </Piece>
  </PolyData>
</VTKFile>
