<?xml version="1.0"?>
<VTKFile type="PolyData" version="0.1" byte_order="LittleEndian" header_type="UInt32" compressor="vtkZLibDataCompressor">
  <PolyData>
    <Piece NumberOfPoints="387" NumberOfVerts="0" NumberOfLines="0" NumberOfStrips="0" NumberOfPolys="465">
      <PointData Normals="Normals">
        <DataArray type="Float32" Name="Normals" NumberOfComponents="3" format="ascii" RangeMin="0.9999993132388743" RangeMax="1.0000006728284234">
          -0.3211820125579834 -0.8622900247573853 0.3915340006351471 -0.6881060004234314 -0.5440919995307922 -0.48007699847221375
          0.3984459936618805 -0.9043750166893005 -0.15279600024223328 0.5214229822158813 -0.6242470145225525 0.5817509889602661
          -0.958886981010437 -0.0526840016245842 -0.2788560092449188 -0.9656839966773987 0.14255699515342712 -0.21709999442100525
          0.3315899968147278 -0.30818501114845276 0.8916670083999634 -0.8749729990959167 -0.27935099601745605 0.395455002784729
          -0.45569899678230286 -0.37439900636672974 -0.8075670003890991 0.703918993473053 -0.48675400018692017 -0.517270028591156
          0.870136022567749 -0.3818170130252838 0.3115760087966919 0.8959159851074219 -0.18831999599933624 0.40233099460601807
          0.8821030259132385 -0.05518199875950813 0.46781399846076965 0.26617300510406494 -0.259660005569458 0.928292989730835
          0.7146810293197632 -0.35090500116348267 -0.605059027671814 -0.9476709961891174 0.28633901476860046 -0.14117400348186493
          0.10539200156927109 -0.20721599459648132 0.9726020097732544 -0.9974409937858582 -0.02145799994468689 0.06819099932909012
          -0.7828670144081116 0.012426000088453293 -0.6220660209655762 -0.9238380193710327 0.26909899711608887 -0.27223101258277893
          0.9381530284881592 -0.24823200702667236 0.241347998380661 0.017412999644875526 -0.09031900018453598 0.995760977268219
          -0.9947159886360168 0.10070499777793884 0.019979000091552734 -0.0071680000983178616 -0.38022899627685547 -0.9248650074005127
          -0.6714000105857849 0.17115700244903564 -0.7210599780082703 -0.7876710295677185 0.569167971611023 -0.23584400117397308
          0.7577549815177917 -0.4882490038871765 -0.43292200565338135 0.22512400150299072 0.00938200019299984 0.9742850065231323
          -0.9902480244636536 0.1181429997086525 -0.07382600009441376 0.6332110166549683 -0.6342499852180481 -0.443589985370636
          -0.9906290173530579 0.10631699860095978 0.08573299646377563 -0.6349520087242126 -0.2781200110912323 -0.720753014087677
          -0.27509498596191406 0.14052900671958923 -0.9510909914970398 -0.5462759733200073 -0.556859016418457 -0.6256909966468811
          0.5629770159721375 -0.14392900466918945 0.8138440251350403 -0.8946179747581482 0.28157201409339905 0.34695300459861755
          -0.2306309938430786 0.14789199829101562 0.9617360234260559 -0.4423219859600067 -0.5154179930686951 -0.7339590191841125
          -0.10474800318479538 -0.9345160126686096 -0.34015700221061707 -0.6163250207901001 0.6247190237045288 -0.47944700717926025
          0.5576310157775879 -0.3962169885635376 0.7294250130653381 -0.8848869800567627 0.3974269926548004 -0.24295400083065033
          -0.8112030029296875 0.5069689750671387 -0.2914310097694397 0.05090999975800514 -0.9367809891700745 -0.34619200229644775
          -0.619350016117096 0.46424400806427 -0.6331530213356018 -0.00821600016206503 -0.8079990148544312 -0.5891259908676147
          0.6546869874000549 -0.6891030073165894 0.31068000197410583 0.43141698837280273 -0.3456209897994995 0.8333219885826111
          -0.8581590056419373 -0.277754008769989 -0.4317589998245239 -0.49567800760269165 -0.8484320044517517 -0.18564899265766144
          -0.7361890077590942 0.6711829900741577 0.0868310034275055 0.14191700518131256 0.07036799937486649 0.9873740077018738
          -0.7514489889144897 -0.5956069827079773 -0.2838599979877472 -0.6230700016021729 -0.5073279738426208 -0.5953159928321838
          -0.5246250033378601 -0.24478299915790558 -0.8153830170631409 -0.6582790017127991 0.04394799843430519 -0.7514899969100952
          -0.933929979801178 0.0709419995546341 -0.3503440022468567 -0.9152050018310547 0.3761819899082184 -0.14452500641345978
          -0.7005169987678528 0.6964880228042603 -0.15550099313259125 -0.10210999846458435 0.7163670063018799 0.6902109980583191
          -0.7225880026817322 0.580020010471344 -0.37609100341796875 -0.5996800065040588 0.10778699815273285 -0.7929480075836182
          0.6591879725456238 -0.7273719906806946 0.19078899919986725 0.3597559928894043 -0.8777440190315247 -0.31644999980926514
          -0.38122400641441345 -0.46583300828933716 -0.7985410094261169 0.44814300537109375 0.6477689743041992 0.616087019443512
          -0.32085201144218445 0.8225409984588623 -0.46955299377441406 -0.31014901399612427 0.349263995885849 -0.884207010269165
          -0.20644700527191162 0.6178590059280396 -0.7587019801139832 -0.322407990694046 0.9377430081367493 -0.12919199466705322
          -0.05372700095176697 0.985837996006012 0.15886099636554718 -0.7267500162124634 0.5051980018615723 -0.46541300415992737
          0.138154998421669 0.802370011806488 0.5806170105934143 -0.12178800255060196 0.900422990322113 0.417618989944458
          -0.38135799765586853 -0.6001570224761963 -0.7031199932098389 0.7891420125961304 0.5716490149497986 0.22466200590133667
          0.5504879951477051 -0.48587900400161743 0.6788849830627441 0.4076080024242401 -0.2588930130004883 0.8756890296936035
          0.052046999335289 0.851622998714447 0.5215650200843811 0.10761400312185287 0.8736600279808044 0.47448599338531494
          -0.14530399441719055 0.8288869857788086 -0.5402160286903381 -0.29359498620033264 0.5526909828186035 -0.7799580097198486
          0.23240500688552856 0.8048760294914246 0.5460429787635803 -0.151077002286911 -0.36864399909973145 -0.9172120094299316
          -0.7194629907608032 0.42497798800468445 -0.5493329763412476 -0.5671730041503906 -0.1319109946489334 -0.812965989112854
          0.4610530138015747 -0.8614320158958435 -0.21299000084400177 0.6932979822158813 0.6909970045089722 -0.20459899306297302
          0.9917880296707153 0.09080100059509277 0.0900690034031868 -0.6798710227012634 0.5279110074043274 -0.5090039968490601
          -0.36324501037597656 -0.7631459832191467 -0.5344730019569397 0.5719249844551086 0.5895180106163025 0.5704129934310913
          0.2838200032711029 0.9573119878768921 0.05477299913764 0.36733299493789673 0.8972390294075012 0.24500800669193268
          0.08567900210618973 0.7628859877586365 -0.6408309936523438 0.8276389837265015 0.3213779926300049 0.46014100313186646
          -0.7794240117073059 0.275518000125885 -0.5626609921455383 -0.7126240134239197 -0.04102800041437149 -0.700344979763031
          -0.3432910144329071 -0.07210200279951096 -0.9364569783210754 -0.1382399946451187 0.9888430237770081 -0.05548499897122383
          0.5241169929504395 0.8515089750289917 0.015324000269174576 0.6894810199737549 0.06325799971818924 0.7215359807014465
          0.7458249926567078 0.5279750227928162 0.4061860144138336 -0.8068720102310181 -0.23803099989891052 -0.5406469702720642
          -0.1154870018362999 0.9562299847602844 0.2688629925251007 -0.016421999782323837 -0.9547560214996338 -0.2969360053539276
          0.2606250047683716 -0.752776026725769 0.6044849753379822 0.34381499886512756 -0.381072998046875 0.8582389950752258
          0.39138999581336975 0.8853139877319336 0.2510649859905243 0.8294079899787903 0.41944000124931335 0.3689889907836914
          0.3431999981403351 -0.8675339818000793 -0.35999900102615356 -0.41983699798583984 0.905797004699707 -0.05717499926686287
          0.10257100313901901 0.9940789937973022 -0.035861000418663025 0.49865400791168213 0.7669990062713623 0.4038029909133911
          0.05578099936246872 0.9448350071907043 0.32276299595832825 -0.44892600178718567 -0.5115929841995239 -0.7326239943504333
          -0.5933679938316345 0.6394109725952148 -0.48894500732421875 -0.023917000740766525 0.9791210293769836 -0.20186500251293182
          0.08971499651670456 0.8068119883537292 -0.5839580297470093 0.916858971118927 0.39065301418304443 0.08221600204706192
          -0.14688800275325775 0.9858239889144897 -0.0810920000076294 -0.363849014043808 0.9298930168151855 0.053971000015735626
          -0.0177839994430542 -0.8173760175704956 -0.5758299827575684 -0.3004879951477051 -0.31320899724960327 -0.9008920192718506
          -0.6442180275917053 0.1337209939956665 -0.7530609965324402 -0.7470099925994873 0.2905629873275757 -0.5979539752006531
          -0.6617460250854492 0.5337520241737366 -0.526498019695282 0.33117398619651794 -0.6528300046920776 -0.6812760233879089
          -0.6278960108757019 0.7616810202598572 -0.159961998462677 -0.3818719983100891 0.9154660105705261 -0.1268710047006607
          -0.5297889709472656 0.8480889797210693 -0.008259999565780163 0.03440999984741211 -0.5435010194778442 -0.8387029767036438
          -0.3596549928188324 0.5876839756965637 -0.7247589826583862 -0.25985199213027954 0.9119920134544373 0.3174079954624176
          -0.20792999863624573 0.07460299879312515 0.9752950072288513 0.18129800260066986 -0.7529709935188293 0.6325860023498535
          0.1232139989733696 -0.5604150295257568 0.8189949989318848 -0.010084000416100025 -0.9790449738502502 0.20339399576187134
          0.3163610100746155 0.9426869750022888 -0.10609900206327438 0.9858279824256897 0.005901999771595001 0.16765600442886353
          0.27034300565719604 -0.9624590277671814 -0.02422799915075302 0.4879629909992218 -0.2245209962129593 -0.8434939980506897
          0.19629399478435516 0.41594499349594116 -0.8879520297050476 0.24132399260997772 0.3608570098876953 -0.9008579850196838
          -0.3305000066757202 0.3431150019168854 -0.8792279958724976 -0.23788900673389435 0.1925410032272339 -0.9520170092582703
          -0.5249369740486145 0.8469160199165344 -0.08469700068235397 -0.21027499437332153 0.9752339720726013 -0.06858299672603607
          -0.23956100642681122 0.5115500092506409 -0.8251829743385315 -0.1039310023188591 0.9922609925270081 0.0679439976811409
          0.006357999984174967 0.46169498562812805 0.8870159983634949 0.1156959980726242 -0.8032310009002686 0.5843240022659302
          0.32627901434898376 -0.9434220194816589 -0.059137001633644104 0.8144469857215881 -0.09588800370693207 0.5722600221633911
          -0.06745400279760361 0.6268029808998108 0.7762519717216492 -0.002584999892860651 0.9611830115318298 -0.2758989930152893
          0.8194299936294556 -0.32840999960899353 -0.4697670042514801 0.9588119983673096 -0.28342199325561523 0.01874700002372265
          0.8864830136299133 -0.4625209867954254 -0.014917000196874142 0.9883440136909485 0.10362999886274338 -0.11152400076389313
          0.9093940258026123 -0.24514299631118774 -0.33601701259613037 0.8628479838371277 -0.21329200267791748 -0.4582580029964447
          0.3721350133419037 0.5469369888305664 -0.7499169707298279 0.03757299855351448 0.9722669720649719 -0.23083600401878357
          0.6345790028572083 0.7630109786987305 -0.12297999858856201 0.02738800086081028 0.6457890272140503 -0.7630249857902527
          0.3019860088825226 -0.6264669895172119 -0.7185699939727783 0.10786499828100204 0.9870650172233582 0.1186090037226677
          0.5611379742622375 0.6660060286521912 0.4914880096912384 0.44155699014663696 -0.6688709855079651 0.5980290174484253
          0.468515008687973 -0.7356579899787903 0.48918500542640686 -0.3972479999065399 -0.23695600032806396 0.8865929841995239
          0.46369698643684387 -0.3293929994106293 0.8224869966506958 0.8580600023269653 -0.3007600009441376 0.41626501083374023
          0.8709660172462463 0.1478479951620102 -0.4685710072517395 0.2366729974746704 0.47660401463508606 -0.8466609716415405
          0.21714399755001068 0.8472170233726501 -0.4848420023918152 0.603331983089447 0.732571005821228 -0.31516700983047485
          0.9724199771881104 -0.17343300580978394 -0.15594999492168427 0.20776599645614624 -0.9055179953575134 -0.3699589967727661
          0.05341000109910965 -0.7268189787864685 0.6847490072250366 0.020901000127196312 -0.4949440062046051 0.8686730265617371
          -0.39671701192855835 0.8907150030136108 -0.22190499305725098 -0.5913990139961243 0.7418850064277649 0.31599798798561096
          0.2623319923877716 0.1091030016541481 -0.9587900042533875 0.6298999786376953 -0.4386509954929352 -0.6409450173377991
          0.5492810010910034 -0.5705130100250244 0.6105780005455017 0.25505098700523376 -0.4344269931316376 -0.8638409972190857
          0.3217410147190094 0.036667000502347946 -0.9461179971694946 0.6650180220603943 0.5053460001945496 -0.549888014793396
          0.43900299072265625 -0.8228759765625 -0.3607650101184845 -0.3650430142879486 0.09621100127696991 0.926006019115448
          0.28992998600006104 -0.8879950046539307 0.3569380044937134 -0.1376499980688095 -0.9247570037841797 0.3547919988632202
          0.34272199869155884 0.9351440072059631 -0.08970499783754349 0.11454100161790848 0.9618229866027832 0.24854999780654907
          0.4651300013065338 0.6873149871826172 0.5579000115394592 0.1964070051908493 0.49733299016952515 0.8450350165367126
          0.541737973690033 0.7753779888153076 -0.3245129883289337 0.5234829783439636 -0.07548899948596954 -0.8486850261688232
          0.40058401226997375 -0.5910789966583252 0.7001129984855652 0.25230300426483154 -0.1229730024933815 0.959801971912384
          0.07099799811840057 -0.8803650140762329 0.4689520001411438 0.009867999702692032 -0.8678269982337952 -0.4967679977416992
          0.5020440220832825 0.808791995048523 0.3062799870967865 0.3634380102157593 0.2889440059661865 0.8856769800186157
          0.15804600715637207 -0.7563599944114685 -0.6347759962081909 0.0981689989566803 -0.35554298758506775 0.9294899702072144
          0.36120399832725525 0.7533919811248779 -0.5494830012321472 -0.4828850030899048 -0.46161800622940063 -0.7441310286521912
          0.18310600519180298 0.8056870102882385 -0.5633299946784973 0.4946810007095337 0.6281480193138123 0.600600004196167
          0.01119299978017807 -0.4292829930782318 0.9031010270118713 -0.3174940049648285 -0.8922460079193115 0.32108399271965027
          0.32468700408935547 0.7598710060119629 -0.56318199634552 -0.17629499733448029 0.13357800245285034 -0.9752320051193237
          0.7879719734191895 0.6028209924697876 0.12532399594783783 0.629315972328186 0.1346299946308136 0.7653999924659729
          0.2069389969110489 -0.6781709790229797 0.7051669955253601 -0.4292370080947876 -0.5924919843673706 -0.6816949844360352
          0.5994849801063538 0.5081589818000793 -0.6183789968490601 0.9266759753227234 0.25486600399017334 -0.2762509882450104
          0.9015690088272095 -0.12701000273227692 0.4135720133781433 -0.008214999921619892 -0.9988849759101868 0.04647799953818321
          -0.17462100088596344 -0.737945020198822 -0.6518779993057251 0.4137980043888092 -0.29096299409866333 -0.8626189827919006
          0.9214580059051514 -0.3504430055618286 -0.1676429957151413 0.41327300667762756 -0.8457919955253601 -0.33740198612213135
          -0.3211820125579834 -0.8622900247573853 0.3915340006351471 0.5214229822158813 -0.6242470145225525 0.5817509889602661
          -0.9656839966773987 0.14255699515342712 -0.21709999442100525 -0.8749729990959167 -0.27935099601745605 0.395455002784729
          0.703918993473053 -0.48675400018692017 -0.517270028591156 0.10539200156927109 -0.20721599459648132 0.9726020097732544
          0.017412999644875526 -0.09031900018453598 0.995760977268219 -0.9947159886360168 0.10070499777793884 0.019979000091552734
          0.22512400150299072 0.00938200019299984 0.9742850065231323 -0.9902480244636536 0.1181429997086525 -0.07382600009441376
          0.6332110166549683 -0.6342499852180481 -0.443589985370636 -0.8581590056419373 -0.277754008769989 -0.4317589998245239
          -0.7361890077590942 0.6711829900741577 0.0868310034275055 -0.7361890077590942 0.6711829900741577 0.0868310034275055
          -0.7361890077590942 0.6711829900741577 0.0868310034275055 -0.6230700016021729 -0.5073279738426208 -0.5953159928321838
          -0.5246250033378601 -0.24478299915790558 -0.8153830170631409 0.4215390086174011 -0.8544549942016602 -0.3036620020866394
          -0.6582790017127991 0.04394799843430519 -0.7514899969100952 -0.6582790017127991 0.04394799843430519 -0.7514899969100952
          -0.933929979801178 0.0709419995546341 -0.3503440022468567 -0.9152050018310547 0.3761819899082184 -0.14452500641345978
          -0.7005169987678528 0.6964880228042603 -0.15550099313259125 -0.10210999846458435 0.7163670063018799 0.6902109980583191
          0.44814300537109375 0.6477689743041992 0.616087019443512 -0.322407990694046 0.9377430081367493 -0.12919199466705322
          0.138154998421669 0.802370011806488 0.5806170105934143 0.138154998421669 0.802370011806488 0.5806170105934143
          -0.12178800255060196 0.900422990322113 0.417618989944458 0.16161799430847168 0.5501109957695007 -0.8193029761314392
          -0.7194629907608032 0.42497798800468445 -0.5493329763412476 0.4610530138015747 -0.8614320158958435 -0.21299000084400177
          -0.6798710227012634 0.5279110074043274 -0.5090039968490601 0.8276389837265015 0.3213779926300049 0.46014100313186646
          0.8276389837265015 0.3213779926300049 0.46014100313186646 0.5241169929504395 0.8515089750289917 0.015324000269174576
          0.8294079899787903 0.41944000124931335 0.3689889907836914 0.3431999981403351 -0.8675339818000793 -0.35999900102615356
          0.3431999981403351 -0.8675339818000793 -0.35999900102615356 0.49865400791168213 0.7669990062713623 0.4038029909133911
          0.05578099936246872 0.9448350071907043 0.32276299595832825 0.916858971118927 0.39065301418304443 0.08221600204706192
          -0.0177839994430542 -0.8173760175704956 -0.5758299827575684 -0.0177839994430542 -0.8173760175704956 -0.5758299827575684
          -0.0177839994430542 -0.8173760175704956 -0.5758299827575684 0.0408409982919693 -0.9754379987716675 -0.21645399928092957
          0.0408409982919693 -0.9754379987716675 -0.21645399928092957 0.33117398619651794 -0.6528300046920776 -0.6812760233879089
          0.33117398619651794 -0.6528300046920776 -0.6812760233879089 0.33117398619651794 -0.6528300046920776 -0.6812760233879089
          0.33117398619651794 -0.6528300046920776 -0.6812760233879089 0.33117398619651794 -0.6528300046920776 -0.6812760233879089
          -0.3818719983100891 0.9154660105705261 -0.1268710047006607 -0.010084000416100025 -0.9790449738502502 0.20339399576187134
          -0.010084000416100025 -0.9790449738502502 0.20339399576187134 -0.010084000416100025 -0.9790449738502502 0.20339399576187134
          -0.010084000416100025 -0.9790449738502502 0.20339399576187134 -0.3305000066757202 0.3431150019168854 -0.8792279958724976
          -0.23788900673389435 0.1925410032272339 -0.9520170092582703 0.8144469857215881 -0.09588800370693207 0.5722600221633911
          0.9588119983673096 -0.28342199325561523 0.01874700002372265 0.8864830136299133 -0.4625209867954254 -0.014917000196874142
          0.2366729974746704 0.47660401463508606 -0.8466609716415405 0.2669390141963959 -0.23652899265289307 -0.9342359900474548
          0.603331983089447 0.732571005821228 -0.31516700983047485 0.9724199771881104 -0.17343300580978394 -0.15594999492168427
          0.20776599645614624 -0.9055179953575134 -0.3699589967727661 0.05341000109910965 -0.7268189787864685 0.6847490072250366
          0.05341000109910965 -0.7268189787864685 0.6847490072250366 0.5492810010910034 -0.5705130100250244 0.6105780005455017
          0.3217410147190094 0.036667000502347946 -0.9461179971694946 0.28992998600006104 -0.8879950046539307 0.3569380044937134
          0.34272199869155884 0.9351440072059631 -0.08970499783754349 0.34272199869155884 0.9351440072059631 -0.08970499783754349
          0.11454100161790848 0.9618229866027832 0.24854999780654907 0.11454100161790848 0.9618229866027832 0.24854999780654907
          0.4651300013065338 0.6873149871826172 0.5579000115394592 0.4651300013065338 0.6873149871826172 0.5579000115394592
          0.1964070051908493 0.49733299016952515 0.8450350165367126 0.1964070051908493 0.49733299016952515 0.8450350165367126
          0.541737973690033 0.7753779888153076 -0.3245129883289337 0.541737973690033 0.7753779888153076 -0.3245129883289337
          0.5234829783439636 -0.07548899948596954 -0.8486850261688232 0.5234829783439636 -0.07548899948596954 -0.8486850261688232
          0.25230300426483154 -0.1229730024933815 0.959801971912384 0.25230300426483154 -0.1229730024933815 0.959801971912384
          0.07099799811840057 -0.8803650140762329 0.4689520001411438 0.07099799811840057 -0.8803650140762329 0.4689520001411438
          0.009867999702692032 -0.8678269982337952 -0.4967679977416992 0.009867999702692032 -0.8678269982337952 -0.4967679977416992
          0.15804600715637207 -0.7563599944114685 -0.6347759962081909 0.15804600715637207 -0.7563599944114685 -0.6347759962081909
          -0.8749729990959167 -0.27935099601745605 0.395455002784729 0.2366729974746704 0.47660401463508606 -0.8466609716415405
          0.1964070051908493 0.49733299016952515 0.8450350165367126 0.5234829783439636 -0.07548899948596954 -0.8486850261688232
          0.25230300426483154 -0.1229730024933815 0.959801971912384 -0.10210999846458435 0.7163670063018799 0.6902109980583191
          0.916858971118927 0.39065301418304443 0.08221600204706192 0.9724199771881104 -0.17343300580978394 -0.15594999492168427
          0.9724199771881104 -0.17343300580978394 -0.15594999492168427 0.05341000109910965 -0.7268189787864685 0.6847490072250366
          0.5234829783439636 -0.07548899948596954 -0.8486850261688232 -0.1154870018362999 0.9562299847602844 0.2688629925251007
          0.08567900210618973 0.7628859877586365 -0.6408309936523438 0.8294079899787903 0.41944000124931335 0.3689889907836914
          0.8194299936294556 -0.32840999960899353 -0.4697670042514801 0.9917880296707153 0.09080100059509277 0.0900690034031868
          0.6932979822158813 0.6909970045089722 -0.20459899306297302 0.49865400791168213 0.7669990062713623 0.4038029909133911
          -0.1382399946451187 0.9888430237770081 -0.05548499897122383 -0.1382399946451187 0.9888430237770081 -0.05548499897122383
          -0.1382399946451187 0.9888430237770081 -0.05548499897122383 -0.3305000066757202 0.3431150019168854 -0.8792279958724976
          -0.23788900673389435 0.1925410032272339 -0.9520170092582703 -0.05372700095176697 0.985837996006012 0.15886099636554718
          -0.1382399946451187 0.9888430237770081 -0.05548499897122383 -0.1154870018362999 0.9562299847602844 0.2688629925251007
          0.7146810293197632 -0.35090500116348267 -0.605059027671814 0.7577549815177917 -0.4882490038871765 -0.43292200565338135
          0.34272199869155884 0.9351440072059631 -0.08970499783754349 0.2069389969110489 -0.6781709790229797 0.7051669955253601
          0.2069389969110489 -0.6781709790229797 0.7051669955253601 0.7891420125961304 0.5716490149497986 0.22466200590133667
          -0.31014901399612427 0.349263995885849 -0.884207010269165 0.26617300510406494 -0.259660005569458 0.928292989730835
          0.08971499651670456 0.8068119883537292 -0.5839580297470093 0.3431999981403351 -0.8675339818000793 -0.35999900102615356
          -0.6617460250854492 0.5337520241737366 -0.526498019695282 -0.3004879951477051 -0.31320899724960327 -0.9008920192718506
          -0.06745400279760361 0.6268029808998108 0.7762519717216492 -0.3972479999065399 -0.23695600032806396 0.8865929841995239
          0.3019860088825226 -0.6264669895172119 -0.7185699939727783 0.3019860088825226 -0.6264669895172119 -0.7185699939727783
          0.32627901434898376 -0.9434220194816589 -0.059137001633644104 0.1156959980726242 -0.8032310009002686 0.5843240022659302
          0.20776599645614624 -0.9055179953575134 -0.3699589967727661 0.9883440136909485 0.10362999886274338 -0.11152400076389313
          0.24132399260997772 0.3608570098876953 -0.9008579850196838 -0.3972479999065399 -0.23695600032806396 0.8865929841995239
          -0.3972479999065399 -0.23695600032806396 0.8865929841995239 -0.3972479999065399 -0.23695600032806396 0.8865929841995239
          -0.39671701192855835 0.8907150030136108 -0.22190499305725098 -0.5913990139961243 0.7418850064277649 0.31599798798561096
          0.49865400791168213 0.7669990062713623 0.4038029909133911 -0.3004879951477051 -0.31320899724960327 -0.9008920192718506
          0.9917880296707153 0.09080100059509277 0.0900690034031868 0.9917880296707153 0.09080100059509277 0.0900690034031868
          -0.20792999863624573 0.07460299879312515 0.9752950072288513 0.8194299936294556 -0.32840999960899353 -0.4697670042514801
          0.4879629909992218 -0.2245209962129593 -0.8434939980506897 -0.6278960108757019 0.7616810202598572 -0.159961998462677
          -0.32085201144218445 0.8225409984588623 -0.46955299377441406 0.4946810007095337 0.6281480193138123 0.600600004196167
          0.5020440220832825 0.808791995048523 0.3062799870967865 0.3634380102157593 0.2889440059661865 0.8856769800186157
          0.629315972328186 0.1346299946308136 0.7653999924659729 0.629315972328186 0.1346299946308136 0.7653999924659729
          0.2069389969110489 -0.6781709790229797 0.7051669955253601
          <InformationKey name="L2_NORM_RANGE" location="vtkDataArray" length="2">
            <Value index="0">
              0.99999931324
            </Value>
            <Value index="1">
              1.0000006728
            </Value>
          </InformationKey>
        </DataArray>
      </PointData>
      <CellData>
      </CellData>
      <Points>
        <DataArray type="Float32" Name="Points" NumberOfComponents="3" format="ascii" RangeMin="0.000035637058283495825" RangeMax="0.1843602619509737">
          -0.10642500221729279 -0.12287300080060959 0.08697500079870224 -0.106904998421669 -0.12466800212860107 0.07617399841547012
          -0.10545600205659866 -0.12507599592208862 0.07525099813938141 -0.10510300099849701 -0.12132400274276733 0.08857899904251099
          -0.10772299766540527 -0.11179599910974503 0.0834909975528717 -0.10583300143480301 -0.10306400060653687 0.08760099858045578
          -0.10400799661874771 -0.11000099778175354 0.09423699975013733 -0.10593199729919434 -0.10756400227546692 0.09521900117397308
          -0.10204300284385681 -0.11358200013637543 0.062474001199007034 -0.09964100271463394 -0.11493200063705444 0.062157001346349716
          -0.10268200188875198 -0.12242499738931656 0.07661599665880203 -0.10054899752140045 -0.11868999898433685 0.07977499812841415
          -0.10000000149011612 -0.11362700164318085 0.0833899974822998 -0.10376700013875961 -0.10272400081157684 0.09740400314331055
          -0.0977730005979538 -0.10602699965238571 0.05857999995350838 -0.09986700117588043 -0.0901700034737587 0.06628700345754623
          -0.10165899991989136 -0.08209200203418732 0.10295499861240387 -0.10106000304222107 -0.0744210034608841 0.10313600301742554
          -0.09680599719285965 -0.08338800072669983 0.05107999965548515 -0.0964369997382164 -0.08121299743652344 0.052981000393629074
          -0.09493300318717957 -0.09912499785423279 0.0608460009098053 -0.09523700177669525 -0.05626700073480606 0.10578200221061707
          -0.0962430015206337 -0.05477999895811081 0.10423199832439423 -0.08906500041484833 -0.07496500015258789 0.04089200124144554
          -0.08978000283241272 -0.07287999987602234 0.04140400141477585 -0.08414699882268906 -0.06679800152778625 0.05030199885368347
          -0.09006199985742569 -0.08777099847793579 0.051375001668930054 -0.08799900114536285 -0.029232999309897423 0.10206300020217896
          -0.08943100273609161 -0.03181400150060654 0.10279099643230438 -0.08512499928474426 -0.0748249962925911 0.041735999286174774
          -0.08870500326156616 -0.026837000623345375 0.10168000310659409 -0.07575400173664093 -0.017177000641822815 0.0848969966173172
          -0.07151500135660172 -0.05866000056266785 0.030990999191999435 -0.06737300008535385 -0.01447299961000681 0.06837199628353119
          -0.07972099632024765 -0.0638979971408844 0.05105400085449219 -0.08352900296449661 -0.013679999858140945 0.09895399957895279
          -0.07603199779987335 -0.004970000125467777 0.09853000193834305 -0.0798960030078888 -0.015615000389516354 0.08884099870920181
          -0.07413099706172943 -0.012701000086963177 0.07464800029993057 -0.06885900348424911 -0.055233001708984375 0.031346000730991364
          -0.06946499645709991 -0.006781000178307295 0.09018299728631973 -0.08292300254106522 -0.011353000067174435 0.0907289981842041
          -0.07476799935102463 -0.0010600000387057662 0.09583699703216553 -0.07936900109052658 -0.01190400030463934 0.061948999762535095
          -0.059193000197410583 -0.04873799905180931 0.036855001002550125 -0.07367800176143646 -0.008658000268042088 0.05335500091314316
          -0.05989700183272362 -0.05922999978065491 0.037257999181747437 -0.061709001660346985 0.0007179999956861138 0.08891600370407104
          -0.08200199902057648 -0.010781999677419662 0.08573800325393677 -0.08005999773740768 -0.012741000391542912 0.07930599898099899
          -0.06885799765586853 0.006269000004976988 0.09365300089120865 -0.05874500051140785 0.012688999995589256 0.09003300219774246
          -0.08187700062990189 -0.012515000067651272 0.07040800154209137 -0.07987000048160553 -0.011384000070393085 0.061347998678684235
          -0.07485699653625488 -0.007207999937236309 0.05286199972033501 -0.06679700314998627 -0.0014400000218302011 0.04345199838280678
          -0.08154600113630295 -0.012066000141203403 0.07817500084638596 -0.08064600080251694 -0.008956000208854675 0.07058300077915192
          -0.05783599987626076 0.014418000355362892 0.08857700228691101 -0.054715998470783234 0.014890000224113464 0.0883919969201088
          -0.07461100071668625 -0.004112000111490488 0.05429299920797348 -0.05096999928355217 -0.03745200112462044 0.03534499928355217