<?xml version="1.0"?>
<VTKFile type="PolyData" version="0.1" byte_order="LittleEndian" header_type="UInt32" compressor="vtkZLibDataCompressor">
  <PolyData>
    <Piece NumberOfPoints="2283" NumberOfVerts="0" NumberOfLines="0" NumberOfStrips="0" NumberOfPolys="1633">
      <PointData Normals="Normals">
        <DataArray type="Float32" Name="Normals" NumberOfComponents="3" format="ascii" RangeMin="0.9999992729479178" RangeMax="1.0000007686976862">
          0.9876670241355896 0.15123499929904938 0.04052099958062172 0.6228309869766235 -0.6495760083198547 0.436040997505188
          0.3329080045223236 -0.5309079885482788 -0.7793009877204895 0.42088401317596436 0.8929629921913147 -0.1596039980649948
          0.5056269764900208 0.020400000736117363 0.8625109791755676 -0.49129900336265564 -0.8655030131340027 0.0976170003414154
          -0.4168199896812439 -0.9057340025901794 0.07685299962759018 0.4380050003528595 0.8962990045547485 0.0692799985408783
          0.2838590145111084 0.38200199604034424 -0.8794869780540466 -0.12462200224399567 0.29370298981666565 0.947737991809845
          -0.4606170058250427 -0.8310750126838684 0.3116840124130249 0.5450649857521057 0.4650900065898895 -0.6975640058517456
          -0.35111498832702637 0.27174800634384155 0.8960310220718384 0.6370270252227783 0.5934479832649231 -0.49195098876953125
          -0.6029829978942871 -0.590499997138977 0.5363960266113281 -0.21586400270462036 -0.9541800022125244 -0.20722700655460358
          -0.34726598858833313 0.707912027835846 0.6150339841842651 -0.950016975402832 -0.18842700123786926 0.24892300367355347
          0.03938400000333786 -0.8516119718551636 -0.522691011428833 0.914201021194458 0.4031600058078766 -0.04120299965143204
          0.2027440071105957 0.8944339752197266 0.3986009955406189 -0.8021820187568665 0.3438670039176941 0.4881179928779602
          0.4060029983520508 0.8390719890594482 0.36210501194000244 -0.8364220261573792 0.547065019607544 -0.03344200178980827
          -0.9346650242805481 -0.20193800330162048 -0.2926129996776581 -0.14285099506378174 -0.9265999794006348 -0.3478580117225647
          0.847940981388092 0.3699420094490051 -0.37965598702430725 -0.3270530104637146 0.5636609792709351 -0.7584999799728394
          0.6326249837875366 -0.7702620029449463 -0.08051200211048126 0.9684270024299622 0.13709299266338348 0.2082190066576004
          0.5536590218544006 -0.709106981754303 -0.43661001324653625 0.7377210259437561 0.5094720125198364 -0.4429500102996826
          -0.3795660138130188 0.1701660007238388 -0.9093809723854065 0.43038100004196167 0.8621199727058411 -0.2674350142478943
          -0.10270699858665466 0.6435530185699463 -0.7584789991378784 -0.08618699759244919 0.41521498560905457 -0.9056310057640076
          -0.5556129813194275 -0.8286139965057373 0.06850200146436691 0.400875985622406 0.38741999864578247 0.8301830291748047
          0.4135349988937378 0.8047170042991638 -0.42593398690223694 -0.9981200098991394 0.03914399817585945 0.047150999307632446
          0.12811699509620667 -0.05021600052714348 -0.9904869794845581 0.3974800109863281 0.9087709784507751 0.1270589977502823
          0.17675599455833435 0.9171630144119263 0.3571690022945404 -0.40081700682640076 -0.8055850267410278 0.43632298707962036
          -0.0643559992313385 0.9151250123977661 0.3980019986629486 -0.4719089865684509 0.7405800223350525 0.47837498784065247
          0.06975200027227402 -0.9231160283088684 -0.37814199924468994 -0.8477470278739929 -0.3383139967918396 0.40849700570106506
          -0.9795380234718323 0.12349899858236313 0.15891100466251373 0.2993040084838867 -0.8512300252914429 -0.43107399344444275
          -0.843084990978241 -0.5323219895362854 -0.07642199844121933 0.9243959784507751 -0.37985900044441223 0.034623000770807266
          -0.8881509900093079 -0.23949700593948364 -0.392210990190506 0.06533399969339371 -0.9802839756011963 -0.18647900223731995
          -0.6901379823684692 -0.27702298760414124 -0.6685569882392883 0.059714000672101974 0.6357030272483826 -0.7696210145950317
          0.06597799807786942 -0.8480730056762695 -0.5257560014724731 0.291703999042511 -0.10578499734401703 -0.9506409764289856
          0.7118290066719055 0.6319590210914612 -0.30647599697113037 0.42999300360679626 0.9004030227661133 -0.0661809965968132
          -0.2935729920864105 -0.828728973865509 0.4764690101146698 -0.36973100900650024 -0.5584239959716797 -0.7426049709320068
          0.09068900346755981 0.16356199979782104 0.9823560118675232 -0.266294002532959 -0.6970940232276917 -0.6656929850578308
          0.5485730171203613 0.7801060080528259 -0.3008350133895874 -0.5771620273590088 -0.589917004108429 0.5646960139274597
          -0.08360199630260468 -0.7413889765739441 -0.6658480167388916 0.5102319717407227 0.8591830134391785 0.038307998329401016
          0.4440020024776459 0.884223997592926 0.14495199918746948 0.13906699419021606 -0.790556013584137 -0.5963910222053528
          0.6450459957122803 0.7538040280342102 0.12528300285339355 -0.7765100002288818 0.03617500141263008 0.629065990447998
          0.17030799388885498 -0.7238500118255615 -0.6686080098152161 -0.8137549757957458 0.3966430127620697 0.4248250126838684
          -0.051392000168561935 -0.7922049760818481 -0.6080870032310486 0.28592199087142944 0.7893620133399963 0.5432819724082947
          -0.9402620196342468 0.34042999148368835 0.003897000104188919 -0.7667620182037354 -0.5398629903793335 -0.34731000661849976
          0.7940930128097534 -0.6075029969215393 -0.018866999074816704 0.0797950029373169 0.8591089844703674 0.5055339932441711
          -0.13519799709320068 0.984283983707428 0.11360599845647812 -0.6587179899215698 -0.21536000072956085 -0.7209100127220154
          -0.273032009601593 -0.659529983997345 -0.7003380060195923 0.8252270221710205 0.5474129915237427 0.13906699419021606
          -0.11560399830341339 0.05730399861931801 -0.9916409850120544 0.41054201126098633 -0.5792350172996521 -0.7042319774627686
          0.6167759895324707 0.6370689868927002 -0.46230998635292053 0.023468000814318657 -0.7767450213432312 0.6293780207633972
          -0.32477301359176636 -0.7239199876785278 0.6086559891700745 0.37354201078414917 0.45474299788475037 0.8085020184516907
          -0.39360401034355164 -0.627780020236969 -0.6715409755706787 -0.185248002409935 -0.6846399903297424 -0.7049480080604553
          -0.46092700958251953 -0.679934024810791 0.5702940225601196 -0.1297769993543625 -0.8181570172309875 -0.5601570010185242
          -0.08793699741363525 0.5973529815673828 0.7971429824829102 -0.23666900396347046 0.6758729815483093 0.6979849934577942
          0.24821999669075012 -0.7226200103759766 -0.6451410055160522 0.6833549737930298 0.7239440083503723 -0.09450499713420868
          0.7193809747695923 0.6510440111160278 0.242139995098114 0.3097659945487976 -0.6796969771385193 -0.6648730039596558
          -0.8219050168991089 0.3373740017414093 0.4589659869670868 0.10103899985551834 0.8672009706497192 0.4875989854335785
          0.9543120265007019 -0.26304298639297485 0.14176300168037415 -0.15568499267101288 0.9294019937515259 0.3346250057220459
          -0.8575360178947449 -0.13546299934387207 -0.49626800417900085 0.44807499647140503 0.7446500062942505 -0.4946970045566559
          -0.0036979999858886003 -0.41883599758148193 -0.908053994178772 -0.5562319755554199 0.08337900042533875 -0.8268340229988098
          0.3067980110645294 -0.9260600209236145 0.2197449952363968 0.6828889846801758 -0.05701800063252449 0.7282940149307251
          0.34562599658966064 0.3418950140476227 0.8738710284233093 0.82048499584198 0.09218399971723557 -0.5641869902610779
          -0.4094359874725342 -0.8513680100440979 -0.3279240131378174 -0.5230510234832764 -0.8160300254821777 -0.24599400162696838
          0.6000909805297852 0.668628990650177 -0.43911901116371155 -0.572484016418457 -0.8081269860267639 -0.13853700459003448
          0.0031999999191612005 0.5918430089950562 0.8060470223426819 -0.5610849857330322 -0.8227189779281616 0.09119799733161926
          0.8239949941635132 0.5420089960098267 -0.1651020050048828 -0.28583601117134094 -0.8262670040130615 -0.4853670001029968
          -0.6607419848442078 0.4760870039463043 0.5803120136260986 0.6454759836196899 0.703216016292572 0.29807400703430176
          -0.09132099896669388 -0.8807839751243591 -0.46463000774383545 0.15309500694274902 -0.876147985458374 -0.4570840001106262
          -0.6547480225563049 0.6809049844741821 0.32813799381256104 0.5334839820861816 0.5105710029602051 0.6743230223655701
          0.2733190059661865 -0.8468319773674011 -0.45625799894332886 0.44324401021003723 -0.7839530110359192 -0.4346869885921478
          0.3865770101547241 0.5351380109786987 0.7511230111122131 0.26624900102615356 0.5466160178184509 0.7939280271530151
          0.07317599654197693 -0.9874240159988403 0.14013999700546265 -0.7564759850502014 -0.19215799868106842 -0.625154972076416
          -0.41353699564933777 0.8732720017433167 -0.2576499879360199 0.4205450117588043 -0.7102479934692383 -0.5645260214805603
          -0.9584490060806274 -0.1308239996433258 -0.25349700450897217 0.5222619771957397 0.71868497133255 0.4590579867362976
          -0.3638409972190857 0.5671169757843018 0.7389169931411743 -0.8745880126953125 -0.445389986038208 -0.19163499772548676
          0.9157099723815918 0.35812899470329285 0.1822589933872223 -0.7359259724617004 -0.549934983253479 -0.3949489891529083
          -0.26985201239585876 0.7620819807052612 0.5885670185089111 -0.9819629788398743 0.1710519939661026 0.08055400103330612
          -0.6533730030059814 -0.5902990102767944 -0.47397398948669434 -0.14984099566936493 0.9080489873886108 0.3911440074443817
          -0.9830030202865601 0.16884499788284302 0.07208999991416931 -0.48464399576187134 -0.7371450066566467 -0.47089099884033203
          0.649383008480072 -0.7604269981384277 0.007253000047057867 0.8583850264549255 0.06771299988031387 -0.5085170269012451
          0.03235200047492981 0.5060750246047974 -0.8618819713592529 -0.8235099911689758 -0.2741680145263672 -0.4966509938240051
          0.47811099886894226 -0.8417819738388062 0.2506229877471924 -0.40787699818611145 -0.627843976020813 -0.6629089713096619
          0.12668299674987793 -0.7460029721260071 0.6537820100784302 0.8636350035667419 0.39078500866889954 0.31846898794174194
          0.6041539907455444 0.490682989358902 0.6278769969940186 -0.27529001235961914 -0.5598899722099304 0.7814980149269104
          -0.6429269909858704 -0.19732700288295746 -0.7400720119476318 0.3363809883594513 0.6298779845237732 -0.7000730037689209
          0.17101900279521942 0.8247889876365662 0.5389580130577087 -0.529088020324707 -0.36753201484680176 0.7648440003395081
          -0.3729420006275177 -0.8625689744949341 -0.34189099073410034 0.6468510031700134 -0.03579699993133545 -0.7617759704589844
          -0.7606030106544495 -0.441307008266449 0.47616299986839294 -0.127142995595932 0.9104790091514587 0.39352500438690186
          -0.5751320123672485 0.7978540062904358 0.18069900572299957 -0.8045420050621033 -0.4694249927997589 -0.3638019859790802
          -0.04617299884557724 -0.9595999717712402 -0.277554988861084 0.9190369844436646 0.02129100076854229 -0.39359599351882935
          0.8371229767799377 -0.4968410134315491 0.2288530021905899 0.07611499726772308 0.913474977016449 -0.3997119963169098
          -0.9982069730758667 0.05194000154733658 0.029753999784588814 -0.9561370015144348 -0.17914099991321564 -0.23175400495529175
          -0.13391399383544922 -0.9376590251922607 0.32072100043296814 0.3905160129070282 -0.0006970000104047358 -0.9205960035324097
          -0.33933699131011963 0.7604830265045166 -0.5536379814147949 -0.7848970293998718 -0.37947899103164673 -0.48982900381088257
          -0.11828800290822983 -0.9609580039978027 -0.25013500452041626 -0.008973999880254269 0.3079819977283478 -0.9513499736785889
          -0.3143100142478943 0.7811959981918335 -0.5393900275230408 0.6791030168533325 0.620510995388031 0.3921540081501007
          -0.21368199586868286 -0.9681490063667297 0.1304900050163269 0.6591899991035461 -0.13464699685573578 0.7398239970207214
          0.00343999988399446 0.5215089917182922 -0.8532389998435974 -0.46715301275253296 -0.7880910038948059 0.40084901452064514
          0.2455819994211197 0.48792600631713867 0.8376259803771973 0.31240200996398926 0.08263999968767166 -0.946349024772644
          -0.7983270287513733 -0.5394650101661682 0.26767799258232117 -0.17794999480247498 0.7446320056915283 0.6433169841766357
          0.6492440104484558 -0.5114880204200745 -0.5629050135612488 -0.8225709795951843 -0.5599460005760193 0.09918300062417984
          -0.4605419933795929 0.8284249901771545 0.31876900792121887 -0.6341429948806763 -0.7585740089416504 0.14976300299167633
          0.8917080163955688 -0.3935750126838684 -0.22350700199604034 0.3282339870929718 0.8712030053138733 -0.36505699157714844
          -0.4967480003833771 0.8641359806060791 -0.08068999648094177 0.1675100028514862 -0.8931810259819031 0.41733500361442566
          -0.8217989802360535 0.36961400508880615 -0.4336259961128235 -0.34294798970222473 -0.7613720297813416 -0.550180971622467
          0.5963600277900696 -0.787513017654419 -0.15549500286579132 0.8460400104522705 0.15482300519943237 -0.5101439952850342
          -0.21258999407291412 -0.9352489709854126 0.28304600715637207 0.3601909875869751 -0.89021897315979 -0.27887699007987976
          -0.5858290195465088 -0.17016999423503876 -0.7923679947853088 0.3137950003147125 0.9257789850234985 -0.2108670026063919
          -0.4848580062389374 0.02696000039577484 -0.8741769790649414 -0.34782299399375916 -0.9218239784240723 0.17105300724506378
          -0.3504610061645508 -0.8926259875297546 0.2835420072078705 0.23350800573825836 0.9571859836578369 -0.171083003282547
          -0.10824000090360641 0.021128999069333076 -0.9939000010490417 0.2979240119457245 0.6747170090675354 0.675275981426239
          -0.4559819996356964 -0.8345209956169128 0.30928099155426025 0.1259479969739914 -0.12363500148057938 -0.9843019843101501
          0.4098910093307495 0.8565490245819092 -0.3135479986667633 0.43126899003982544 -0.25385600328445435 -0.8657739758491516
          0.614920973777771 0.7787610292434692 -0.12411399930715561 -0.6927310228347778 -0.7072759866714478 0.1410129964351654
          -0.9093769788742065 0.11525599658489227 0.3996880054473877 0.7167500257492065 -0.4714910089969635 -0.5137760043144226
          0.692916989326477 0.7167239785194397 0.0785679966211319 -0.6586019992828369 0.5274659991264343 0.5366770029067993
          -0.4872489869594574 0.860601007938385 -0.1481730043888092 -0.6915460228919983 0.7055960297584534 -0.15459200739860535
          -0.09747599810361862 -0.995186984539032 -0.010106000117957592 0.887939989566803 -0.3925139904022217 0.23978200554847717
          0.7157289981842041 0.6463660001754761 0.26446598768234253 0.9609230160713196 -0.05210400000214577 0.2718699872493744
          -0.027730999514460564 0.5805150270462036 -0.8137770295143127 -0.6180890202522278 -0.28918999433517456 -0.7309820055961609
          0.30660098791122437 -0.9109960198402405 -0.275831013917923 0.3989889919757843 0.9072369933128357 -0.13315199315547943
          0.5710840225219727 -0.31325000524520874 0.7587739825248718 0.32529500126838684 -0.945402979850769 -0.019926000386476517
          -0.3579770028591156 0.05520499870181084 -0.9320970177650452 0.4161829948425293 0.6116769909858704 -0.6727880239486694
          -0.5536569952964783 0.3920159935951233 -0.734703004360199 0.3890160024166107 0.9211710095405579 -0.010564000345766544
          -0.4072909951210022 -0.3003099858760834 -0.86251300573349 -0.3370479941368103 -0.9371860027313232 0.08990000188350677
          -0.3331330120563507 -0.938073992729187 -0.09508100152015686 0.3031710088253021 0.8705629706382751 0.38756701350212097
          0.24577799439430237 0.5353140234947205 -0.8081039786338806 -0.02111399918794632 0.23299600183963776 0.9722480177879333
          -0.30393901467323303 -0.940526008605957 -0.151761993765831 0.40691301226615906 0.5735229849815369 -0.710981011390686
          0.17256300151348114 0.8738639950752258 0.4545139968395233 -0.30147799849510193 -0.9487810134887695 -0.094480000436306
          -0.6482160091400146 0.3002679944038391 0.6997529864311218 -0.1495330035686493 -0.938510000705719 -0.31119000911712646
          -0.8138920068740845 0.27631500363349915 0.5111070275306702 0.8184340000152588 -0.5186780095100403 -0.24726299941539764
          0.6184419989585876 0.7657359838485718 0.17657099664211273 -0.9576399922370911 -0.00686099985614419 -0.28788501024246216
          -0.5541380047798157 0.7990239858627319 -0.2334350049495697 -0.7608810067176819 0.5554220080375671 -0.3355099856853485
          -0.822513997554779 -0.21462799608707428 -0.5266939997673035 0.7854509949684143 0.6180980205535889 -0.03197000175714493
          -0.6150040030479431 0.5431879758834839 -0.5715919733047485 -0.6214590072631836 -0.32638001441955566 -0.7122250199317932
          0.951088011264801 -0.2429320067167282 -0.19083000719547272 0.7039229869842529 0.22764599323272705 0.672806978225708
          0.557856023311615 -0.46698999404907227 0.6860880255699158 0.9548969864845276 -0.09558600187301636 -0.2811320126056671
          0.6443780064582825 0.6513140201568604 0.4007070064544678 -0.5013970136642456 -0.8647810220718384 0.027475999668240547
          0.41929200291633606 -0.8489800095558167 -0.3216019868850708 0.7466539740562439 0.6069250106811523 -0.2723039984703064
          -0.2060849964618683 0.8526279926300049 -0.4801599979400635 -0.2960340082645416 0.5481870174407959 -0.7822120189666748
          -0.38543498516082764 -0.9144870042800903 0.12309499830007553 0.4079900085926056 0.9129869937896729 0.0004569999873638153
          -0.46968498826026917 -0.8410300016403198 -0.26844799518585205 -0.12157099694013596 -0.10733900219202042 -0.9867619872093201
          -0.12419400364160538 -0.39465799927711487 0.9103959798812866 -0.3499859869480133 -0.9270049929618835 -0.13480299711227417
          0.3142000138759613 0.9164999723434448 0.2476000040769577 -0.3178499937057495 -0.9417240023612976 -0.11012399941682816
          0.08890300244092941 0.9530079960823059 0.2896060049533844 -0.13419899344444275 -0.9291260242462158 -0.34455201029777527
          0.7661569714546204 -0.4405519962310791 -0.4678860008716583 -0.6608949899673462 0.5416949987411499 0.5194079875946045
          -0.9163560271263123 -0.23732900619506836 0.3224389851093292 0.5735800266265869 0.7778019905090332 0.2569650113582611
          -0.7305279970169067 -0.5213479995727539 -0.4410499930381775 0.6737669706344604 -0.7387059926986694 0.018722999840974808
          0.4293229877948761 0.8022369742393494 0.4148460030555725 -0.16377000510692596 0.9017500281333923 0.40003299713134766
          0.8514940142631531 -0.28560900688171387 0.43975600600242615 0.7837690114974976 -0.40058499574661255 0.474592000246048
          0.8200669884681702 -0.06693799793720245 -0.5683389902114868 -0.04236200079321861 0.7826780080795288 -0.6209830045700073
          -0.3368130028247833 -0.11419899761676788 -0.9346209764480591 0.5050650238990784 -0.6639360189437866 -0.5514519810676575
          0.7740870118141174 0.6063410043716431 -0.18204399943351746 0.7341840267181396 0.13429799675941467 0.6655359864234924
          0.2072249948978424 0.9564639925956726 -0.2055090069770813 -0.536296010017395 0.36446499824523926 -0.7612829804420471
          0.608951985836029 0.48603901267051697 0.6268529891967773 -0.10157199949026108 -0.9057819843292236 0.4113909900188446
          -0.6525359749794006 0.11557299643754959 -0.7488920092582703 0.09323599934577942 -0.800849974155426 0.5915629863739014
          0.30055201053619385 0.5399799942970276 0.7861869931221008 -0.030623000115156174 0.45434799790382385 -0.8902980089187622
          0.016419999301433563 -0.8042669892311096 0.5940409898757935 -0.2146410048007965 -0.8750410079956055 0.4338580071926117
          0.27166101336479187 0.9475359916687012 0.16845199465751648 -0.35202500224113464 -0.9036579728126526 0.2438890039920807
          -0.16157400608062744 0.34446799755096436 0.9247900247573853 0.4802510142326355 0.24345999956130981 -0.84266597032547
          0.01946300081908703 -0.7044990062713623 -0.7094389796257019 -0.5322880148887634 -0.7373030185699463 0.4159969985485077
          -0.330936998128891 0.5011360049247742 0.799589991569519 -0.2099979966878891 -0.932440996170044 -0.2940320074558258
          0.18751899898052216 0.8981519937515259 0.397693008184433 -0.37248799204826355 0.7775390148162842 0.5066409707069397
          0.9954779744148254 0.08660399913787842 0.03904400020837784 0.5147889852523804 -0.8084380030632019 -0.2853420078754425
          -0.9378650188446045 -0.17342500388622284 -0.3005540072917938 -0.20955699682235718 0.9661809802055359 0.1502700001001358
          0.5925580263137817 -0.8055239915847778 -0.0024349999148398638 -0.18458999693393707 0.7675679922103882 -0.6138120293617249
          0.8668749928474426 0.48559099435806274 -0.11281999945640564 0.42429500818252563 -0.5240960121154785 0.7384420037269592
          0.0198730006814003 -0.9249359965324402 0.37960198521614075 -0.6562579870223999 -0.14937900006771088 -0.7396020293235779
          0.3602150082588196 0.900068998336792 0.24519599974155426 -0.88441401720047 0.45503300428390503 0.10371299833059311
          -0.885083019733429 0.42597898840904236 -0.1875379979610443 -0.331853985786438 -0.8333529829978943 0.4420360028743744
          0.21811500191688538 0.92466801404953 -0.31211400032043457 -0.07771100103855133 0.9789549708366394 -0.18870200216770172
          0.4053730070590973 -0.5256969928741455 0.7478740215301514 0.8936370015144348 0.15186600387096405 -0.4223160147666931
          -0.7464680075645447 0.5935840010643005 0.30073800683021545 0.870631992816925 0.2770630121231079 0.40649300813674927
          0.10926999896764755 -0.41965800523757935 -0.9010810256004333 0.8083279728889465 -0.015247000381350517 0.5885339975357056
          0.46968600153923035 0.8821579813957214 0.03452200070023537 0.1521569937467575 0.025673000141978264 -0.9880229830741882
          -0.4451749920845032 0.056178998202085495 0.8936799764633179 0.9365739822387695 0.14473800361156464 0.3191849887371063
          0.9091569781303406 0.38478198647499084 -0.15929900109767914 0.8718420267105103 -0.008332000114023685 -0.4897159934043884
          -0.6634190082550049 -0.5770429968833923 -0.4763369858264923 -0.46703699231147766 -0.6758480072021484 0.5701799988746643
          -0.9542480111122131 -0.20108099281787872 0.22130699455738068 -0.8499079942703247 -0.00711899995803833 -0.526881992816925
          0.8505719900131226 -0.1658259928226471 -0.4990290105342865 0.4545679986476898 0.8602910041809082 -0.23079699277877808
          -0.6590909957885742 0.6882190108299255 -0.3032369911670685 -0.6437109708786011 0.745248019695282 0.17389699816703796
          -0.9240769743919373 -0.3654229938983917 0.11201599985361099 -0.4720979928970337 -0.838146984577179 0.2731890082359314
          -0.6940699815750122 -0.686178982257843 -0.21777400374412537 -0.6126070022583008 0.7722079753875732 0.16854499280452728
          -0.5832679867744446 -0.6676350235939026 0.4626689851284027 0.37715500593185425 0.03484499827027321 0.9254940152168274
          0.3264859914779663 0.8396379947662354 0.4340690076351166 0.8201749920845032 0.32381701469421387 0.471653014421463
          0.8913329839706421 -0.002124000107869506 0.4533439874649048 0.9138190150260925 0.3559719920158386 -0.19549599289894104
          0.06622999906539917 0.04693000018596649 -0.9966999888420105 0.6399980187416077 0.5675889849662781 -0.5179240107536316
          -0.9528669714927673 0.04529400169849396 0.2999899983406067 -0.8876960277557373 0.4059959948062897 0.21717000007629395
          -0.8928329944610596 0.41132500767707825 -0.18347199261188507 0.8982840180397034 0.35316601395606995 0.2614560127258301
          0.4011639952659607 0.6523870229721069 0.6430079936981201 0.8582580089569092 0.3328090012073517 0.3906799852848053
          0.5769580006599426 0.3047659993171692 -0.7577840089797974 -0.8825560212135315 0.24637800455093384 -0.40049099922180176
          0.4076389968395233 0.9131060242652893 0.008213000372052193 -0.9920669794082642 -0.007786999922245741 0.12547199428081512
          -0.08118200302124023 -0.32456499338150024 -0.9423729777336121 0.020370999351143837 0.9302579760551453 -0.3663409948348999
          -0.5533570051193237 -0.8324750065803528 0.02795499935746193 -0.9348580241203308 -0.31441301107406616 -0.1648789942264557
          0.8212980031967163 -0.15214300155639648 0.5498390197753906 0.35175299644470215 0.755262017250061 0.5530359745025635
          -0.7400069832801819 -0.6439499855041504 -0.19421200454235077 0.7876260280609131 0.4862369894981384 -0.37844300270080566
          0.9190040230751038 -0.1838739961385727 0.3487429916858673 0.7986950278282166 -0.3178290128707886 -0.5109509825706482
          -0.8119990229606628 0.5433139801025391 -0.21323199570178986 -0.9205189943313599 -0.3905459940433502 0.010859999805688858
          0.9532650113105774 -0.30010199546813965 0.03500000014901161 0.4183799922466278 0.9032719731330872 -0.09517700225114822
          0.5252829790115356 -0.0593780018389225 -0.8488540053367615 0.44141000509262085 0.8573070168495178 -0.2649199962615967
          -0.8248289823532104 0.2874409854412079 -0.4868620038032532 -0.4201050102710724 0.9017199873924255 0.1020440012216568
          -0.6968140006065369 -0.3506160080432892 0.6257140040397644 0.5392199754714966 0.5247460007667542 0.6586980223655701
          -0.6389939785003662 -0.759361982345581 0.12270300090312958 0.3826430141925812 0.9183239936828613 0.10131800174713135
          0.9110329747200012 0.24681399762630463 0.3303050100803375 0.8534380197525024 0.22838400304317474 -0.46849098801612854
          0.537539005279541 0.43313801288604736 -0.7234939932823181 0.45451900362968445 0.36441200971603394 0.8127830028533936
          0.7037310004234314 0.7096869945526123 -0.03328600153326988 -0.7524129748344421 -0.2056560069322586 -0.625764012336731
          0.7082470059394836 0.7057819962501526 -0.016075000166893005 -0.9022539854049683 0.4304180145263672 -0.026030000299215317
          0.8185819983482361 0.04778299853205681 -0.5723990201950073 -0.1581140011548996 -0.8732960224151611 -0.46081799268722534
          -0.6656219959259033 0.3547309935092926 -0.6565920114517212 0.27724599838256836 0.957846999168396 -0.07525700330734253
          -0.9082109928131104 0.41795000433921814 0.021694999188184738 -0.5171290040016174 0.8106560111045837 0.27461498975753784
          -0.5106620192527771 -0.29044100642204285 0.8092389702796936 0.6894909739494324 -0.5969300270080566 0.41021600365638733
          0.5846589803695679 0.6375700235366821 0.5016760230064392 0.74686199426651 0.2785879969596863 0.6038100123405457
          0.683974027633667 0.2526969909667969 -0.6843420267105103 0.5776219964027405 -0.8161280155181885 -0.0169879999011755
          -0.6564310193061829 -0.6617429852485657 -0.3622080087661743 0.5344229936599731 -0.8450329899787903 0.017626000568270683
          0.9287220239639282 -0.3499639928340912 -0.12247499823570251 -0.9259120225906372 -0.37510600686073303 -0.04453599825501442
          -0.49348899722099304 -0.6691790223121643 0.5555790066719055 0.9392470121383667 0.08902399986982346 -0.3314949870109558
          0.7910869717597961 0.1216220036149025 0.5994910001754761 -0.8295459747314453 0.5045030117034912 -0.23943699896335602
          0.6168649792671204 0.053164999932050705 -0.7852709889411926 -0.32710000872612 -0.8188539743423462 -0.47168299555778503
          -0.8667849898338318 0.35573500394821167 -0.349480003118515 0.2795630097389221 0.9593290090560913 -0.03915100172162056
          -0.9106339812278748 0.24609999358654022 -0.33193400502204895 -0.5698469877243042 0.8124110102653503 0.12354099750518799
          -0.7925080060958862 -0.17051899433135986 0.5855380296707153 0.6251839995384216 -0.568248987197876 0.5350120067596436
          0.4087350070476532 0.7068589925765991 0.5773090124130249 0.9944760203361511 0.09779100120067596 -0.03813900053501129
          0.9311069846153259 0.05887499824166298 -0.35996299982070923 -0.7098699808120728 -0.00009899999713525176 -0.7043330073356628
          0.9308940172195435 0.05857900157570839 0.3605610132217407 -0.7096629738807678 -0.0003549999964889139 0.704541027545929
          -0.9209669828414917 0.35560598969459534 -0.15926000475883484 0.723002016544342 0.6892729997634888 -0.04659099876880646
          0.5652469992637634 -0.43268901109695435 0.7023360133171082 0.7596039772033691 0.6300809979438782 -0.1612440049648285
          0.5652469992637634 -0.43268901109695435 -0.7023360133171082 -0.7497169971466064 -0.5260009765625 -0.40155699849128723
          -0.6838939785957336 0.6954920291900635 0.22040900588035583 -0.9819030165672302 0.11508200317621231 -0.15040899813175201
          -0.7353050112724304 -0.5500479936599731 -0.3959459960460663 -0.5647029876708984 -0.8226649761199951 -0.06582699716091156
          0.8101540207862854 0.08682700246572495 -0.5797510147094727 -0.569786012172699 0.8207409977912903 -0.041572000831365585
          -0.8713719844818115 -0.09027200192213058 0.482246994972229 0.3509570062160492 -0.7743980288505554 0.5264379978179932
          0.43296000361442566 0.579721987247467 0.690267026424408 -0.6658130288124084 -0.5839300155639648 0.4644550085067749
          -0.5647029876708984 -0.8226649761199951 0.06582699716091156 -0.74617600440979 0.6627860069274902 0.06274300068616867
          0.8101540207862854 0.08682700246572495 0.5797510147094727 0.25169700384140015 0.9634400010108948 -0.09182900190353394
          0.4696800112724304 -0.22376500070095062 -0.8540080189704895 -0.5337830185890198 -0.716126024723053 -0.44971001148223877