<?xml version="1.0"?>
<VTKFile type="PolyData" version="0.1" byte_order="LittleEndian" header_type="UInt32" compressor="vtkZLibDataCompressor">
  <PolyData>
    <Piece NumberOfPoints="145" NumberOfVerts="0" NumberOfLines="0" NumberOfStrips="0" NumberOfPolys="119">
      <PointData Normals="Normals">
        <DataArray type="Float32" Name="Normals" NumberOfComponents="3" format="ascii" RangeMin="0.9999993263122251" RangeMax="1.0000005678739776">
          0.4589160084724426 0.7356979846954346 -0.49814000725746155 0.6465460062026978 0.4771629869937897 -0.595225989818573
          0.6477739810943604 0.7412829995155334 -0.1757490038871765 0.5149270296096802 0.6880319714546204 -0.5113329887390137
          0.8006119728088379 0.5117899775505066 0.31159499287605286 0.5417600274085999 0.41097500920295715 0.7332090139389038
          0.3770020008087158 0.589443027973175 -0.7144410014152527 -0.24229000508785248 0.3577060103416443 -0.9018549919128418
          0.27131199836730957 0.10655800253152847 -0.9565749764442444 0.3533500134944916 0.0754150003194809 -0.9324470162391663
          0.994629979133606 -0.09227000176906586 -0.0468670018017292 0.9190930128097534 0.39226698875427246 0.03734400123357773
          0.5763610005378723 0.32941699028015137 0.747859001159668 0.04471400007605553 0.1466049998998642 0.9881839752197266
          0.5763350129127502 -0.4653570055961609 0.6717740297317505 0.29065999388694763 0.17492499947547913 0.9407010078430176
          -0.33859899640083313 -0.382423996925354 0.8597109913825989 -0.4425469934940338 0.5836039781570435 0.6808509826660156
          -0.6849629878997803 -0.003338000038638711 0.7285709977149963 -0.2107979953289032 0.9047049880027771 0.37023401260375977
          -0.7274489998817444 0.23747800290584564 0.6437559723854065 -0.8541470170021057 0.5200290083885193 -0.0018520000157877803
          -0.7175469994544983 0.5989500284194946 -0.3555069863796234 -0.7534019947052002 0.4188379943370819 -0.5069119930267334
          -0.9891579747200012 -0.10360000282526016 -0.10408800095319748 -0.8810089826583862 0.041940998286008835 -0.471235990524292
          0.14658500254154205 0.20913000404834747 -0.9668390154838562 -0.8458899855613708 0.031235000118613243 -0.5324419736862183
          -0.05834700167179108 0.6459230184555054 0.7611690163612366 -0.13587899506092072 -0.5793219804763794 0.8036929965019226
          0.392661988735199 -0.7059360146522522 0.5894659757614136 -0.6135720014572144 -0.31085699796676636 0.7258769869804382
          0.9970059990882874 -0.03104100003838539 -0.07082100212574005 0.6464430093765259 -0.19992700219154358 -0.7363020181655884
          0.7713840007781982 -0.10786399990320206 -0.6271610260009766 0.8906310200691223 -0.3316119909286499 0.31114399433135986
          0.5893660187721252 -0.1660030037164688 0.7906270027160645 -0.7672950029373169 -0.1884170025587082 0.6129900217056274
          0.6501070261001587 0.1756329983472824 -0.7392659783363342 0.6349520087242126 -0.7464240193367004 0.1992190033197403
          0.7856810092926025 -0.5946900248527527 0.1704380065202713 0.8548979759216309 0.3025299906730652 -0.4214560091495514
          0.5216450095176697 -0.6089829802513123 -0.5975170135498047 0.13639600574970245 0.08321599662303925 -0.9871529936790466
          -0.033312998712062836 -0.8104619979858398 -0.5848429799079895 -0.31300899386405945 -0.18299299478530884 -0.931954026222229
          -0.20398299396038055 -0.8047419786453247 -0.5574780106544495 -0.976078987121582 -0.14175300300121307 -0.16485199332237244
          0.006200999952852726 -0.8656460046768188 0.5006179809570312 0.3044559955596924 -0.9524679780006409 0.010537000373005867
          0.6651279926300049 -0.015867000445723534 0.7465609908103943 0.8622320294380188 0.3541559875011444 -0.3621169924736023
          0.02474999986588955 0.5340660214424133 -0.8450809717178345 -0.8762969970703125 -0.07516899704933167 0.4758700132369995
          0.29998600482940674 -0.16700899600982666 0.9392110109329224 0.9208239912986755 0.14040400087833405 -0.3638260066509247
          -0.9630100131034851 -0.08884400129318237 -0.25440001487731934 -0.14843499660491943 -0.19728399813175201 0.969044029712677
          0.8342090249061584 0.034026000648736954 0.5503969788551331 -0.6952229738235474 -0.19081999361515045 0.6930019855499268
          -0.5456910133361816 -0.14112800359725952 0.8260170221328735 -0.7357919812202454 -0.003636999987065792 -0.6771969795227051
          0.5149270296096802 0.6880319714546204 -0.5113329887390137 0.5149270296096802 0.6880319714546204 -0.5113329887390137
          -0.025867000222206116 0.997672975063324 -0.06308600306510925 0.8006119728088379 0.5117899775505066 0.31159499287605286
          0.565093994140625 0.8175150156021118 -0.11107400059700012 0.565093994140625 0.8175150156021118 -0.11107400059700012
          0.5093690156936646 0.8106449842453003 0.28878700733184814 0.8462100028991699 0.1831829994916916 0.5003730058670044
          0.5417600274085999 0.41097500920295715 0.7332090139389038 0.3770020008087158 0.589443027973175 -0.7144410014152527
          -0.24229000508785248 0.3577060103416443 -0.9018549919128418 0.6425219774246216 0.6655319929122925 -0.3797779977321625
          0.40522000193595886 0.6163219809532166 -0.6752369999885559 0.40522000193595886 0.6163219809532166 -0.6752369999885559
          0.3533500134944916 0.0754150003194809 -0.9324470162391663 0.3133409917354584 0.147038996219635 -0.9381880164146423
          0.9190930128097534 0.39226698875427246 0.03734400123357773 0.5763610005378723 0.32941699028015137 0.747859001159668
          -0.33859899640083313 -0.382423996925354 0.8597109913825989 -0.4425469934940338 0.5836039781570435 0.6808509826660156
          0.14658500254154205 0.20913000404834747 -0.9668390154838562 0.14658500254154205 0.20913000404834747 -0.9668390154838562
          -0.8458899855613708 0.031235000118613243 -0.5324419736862183 0.632345974445343 -0.31167998909950256 0.7092210054397583
          0.632345974445343 -0.31167998909950256 0.7092210054397583 -0.05834700167179108 0.6459230184555054 0.7611690163612366
          0.9970059990882874 -0.03104100003838539 -0.07082100212574005 0.9970059990882874 -0.03104100003838539 -0.07082100212574005
          0.9970059990882874 -0.03104100003838539 -0.07082100212574005 0.9970059990882874 -0.03104100003838539 -0.07082100212574005
          0.8698319792747498 -0.42159798741340637 -0.25621598958969116 0.6464430093765259 -0.19992700219154358 -0.7363020181655884
          0.7713840007781982 -0.10786399990320206 -0.6271610260009766 0.7713840007781982 -0.10786399990320206 -0.6271610260009766
          0.8906310200691223 -0.3316119909286499 0.31114399433135986 0.8906310200691223 -0.3316119909286499 0.31114399433135986
          0.5893660187721252 -0.1660030037164688 0.7906270027160645 0.6349520087242126 -0.7464240193367004 0.1992190033197403
          0.7856810092926025 -0.5946900248527527 0.1704380065202713 -0.033312998712062836 -0.8104619979858398 -0.5848429799079895
          -0.7357919812202454 -0.003636999987065792 -0.6771969795227051 0.6464430093765259 -0.19992700219154358 -0.7363020181655884
          0.7713840007781982 -0.10786399990320206 -0.6271610260009766 0.8906310200691223 -0.3316119909286499 0.31114399433135986
          0.565093994140625 0.8175150156021118 -0.11107400059700012 0.565093994140625 0.8175150156021118 -0.11107400059700012
          0.632345974445343 -0.31167998909950256 0.7092210054397583 -0.2514980137348175 -0.6698390245437622 0.6986160278320312
          -0.2514980137348175 -0.6698390245437622 0.6986160278320312 -0.9630100131034851 -0.08884400129318237 -0.25440001487731934
          0.6477739810943604 0.7412829995155334 -0.1757490038871765 0.994629979133606 -0.09227000176906586 -0.0468670018017292
          0.6477739810943604 0.7412829995155334 -0.1757490038871765 -0.9630100131034851 -0.08884400129318237 -0.25440001487731934
          -0.8762969970703125 -0.07516899704933167 0.4758700132369995 -0.976078987121582 -0.14175300300121307 -0.16485199332237244
          0.994629979133606 -0.09227000176906586 -0.0468670018017292 0.29065999388694763 0.17492499947547913 0.9407010078430176
          -0.33859899640083313 -0.382423996925354 0.8597109913825989 -0.33859899640083313 -0.382423996925354 0.8597109913825989
          -0.33859899640083313 -0.382423996925354 0.8597109913825989 0.29065999388694763 0.17492499947547913 0.9407010078430176
          0.6477739810943604 0.7412829995155334 -0.1757490038871765 0.8906310200691223 -0.3316119909286499 0.31114399433135986
          0.5216450095176697 -0.6089829802513123 -0.5975170135498047 0.13639600574970245 0.08321599662303925 -0.9871529936790466
          0.5763350129127502 -0.4653570055961609 0.6717740297317505 0.3770020008087158 0.589443027973175 -0.7144410014152527
          0.994629979133606 -0.09227000176906586 -0.0468670018017292 0.40522000193595886 0.6163219809532166 -0.6752369999885559
          0.09749700129032135 0.41227900981903076 -0.9058259725570679 0.40522000193595886 0.6163219809532166 -0.6752369999885559
          0.530830979347229 0.0939050018787384 -0.8422589898109436 0.6464430093765259 -0.19992700219154358 -0.7363020181655884
          0.9970059990882874 -0.03104100003838539 -0.07082100212574005 -0.0853630006313324 0.20524999499320984 -0.9749799966812134
          0.14658500254154205 0.20913000404834747 -0.9668390154838562 0.7713840007781982 -0.10786399990320206 -0.6271610260009766
          -0.9891579747200012 -0.10360000282526016 -0.10408800095319748 -0.6849629878997803 -0.003338000038638711 0.7285709977149963
          0.3044559955596924 -0.9524679780006409 0.010537000373005867 0.006200999952852726 -0.8656460046768188 0.5006179809570312
          0.0775739997625351 -0.7226619720458984 0.6868339776992798
          <InformationKey name="L2_NORM_RANGE" location="vtkDataArray" length="2">
            <Value index="0">
              0.99999932631
            </Value>
            <Value index="1">
              1.0000005679
            </Value>
          </InformationKey>
        </DataArray>
      </PointData>
      <CellData>
      </CellData>
      <Points>
        <DataArray type="Float32" Name="Points" NumberOfComponents="3" format="ascii" RangeMin="0.011813328733514676" RangeMax="0.2522747754823259">
          -0.009356999769806862 -0.010036000050604343 -0.00785600021481514 -0.010112999938428402 -0.010627999901771545 -0.012292999774217606
          -0.009587000124156475 -0.008685999549925327 -0.0048870001919567585 0.004925999790430069 -0.01332900021225214 -0.007780000101774931
          0.006211999803781509 -0.00991899985820055 -0.0016060000052675605 0.0021279999054968357 -0.017355000600218773 0.010677999816834927
          -0.010228999890387058 0.011257000267505646 -0.008116000331938267 -0.022600000724196434 0.0001500000071246177 -0.00877899955958128
          -0.019672000780701637 -0.005675000138580799 -0.008803999982774258 -0.015355999581515789 0.008150000125169754 -0.010269000194966793
          -0.01203600037842989 0.0007489999989047647 -0.00266700005158782 -0.005171000026166439 0.010976999998092651 -0.00010299999848939478
          -0.011416999623179436 0.010027999989688396 0.011276000179350376 -0.015003999695181847 0.005051000043749809 0.014065999537706375
          -0.01572299934923649 -0.0031739999540150166 0.011095000430941582 -0.01654299907386303 -0.010502000339329243 0.00800000037997961
          -0.02480199933052063 -0.006831000093370676 0.008612999692559242 -0.01726900041103363 0.0090549997985363 0.010982999578118324
          -0.025203999131917953 -0.000674000009894371 0.01092899963259697 -0.01627800054848194 0.011982999742031097 0.006461000069975853
          -0.026910999789834023 0.0029440000653266907 0.009452000260353088 -0.028320999816060066 0.006335999816656113 0.003633999964222312
          -0.026861000806093216 0.006068999879062176 0.000547999981790781 -0.025526000186800957 0.0043020001612603664 -0.003452999982982874
          -0.02726300060749054 -0.023614000529050827 -0.007712999824434519 -0.027201000601053238 -0.016894999891519547 -0.007714000064879656
          -0.015258999541401863 -0.04730900004506111 -0.022130999714136124 -0.024555999785661697 -0.04785199835896492 -0.01853499934077263
          -0.008957999758422375 -0.015084999613463879 0.012606999836862087 -0.008340000174939632 -0.022539999336004257 0.01090100035071373
          -0.007114999927580357 -0.026690000668168068 0.004722000099718571 -0.020181000232696533 -0.04250200092792511 -0.007588000036776066
          -0.007814999669790268 -0.049835000187158585 -0.01459100004285574 -0.0004839999892283231 -0.02174299955368042 -0.011657999828457832
          -0.009093999862670898 -0.0361890010535717 -0.01450399961322546 -0.006957000121474266 -0.038474999368190765 -0.0053610000759363174
          -0.011115999892354012 -0.07182099670171738 -0.012424999848008156 -0.020547999069094658 -0.07126100361347198 -0.017356999218463898
          -0.007666000165045261 -0.06912499666213989 -0.0255769994109869 0.009410000406205654 -0.24367600679397583 -0.043255001306533813
          0.012916999869048595 -0.24160200357437134 -0.0466650016605854 0.014062999747693539 -0.23346400260925293 -0.05031299963593483
          0.009751000441610813 -0.24150800704956055 -0.05418400093913078 0.01017799973487854 -0.23555700480937958 -0.05504399910569191
          0.004298999905586243 -0.24330799281597137 -0.05050700157880783 0.004889000207185745 -0.23758600652217865 -0.05611100047826767
          -0.0024689999409019947 -0.24757899343967438 -0.048385001718997955 -0.006014999933540821 -0.24188999831676483 -0.04867599904537201
          0.00919399969279766 -0.2437870055437088 -0.043480999767780304 0.0024999999441206455 -0.24407300353050232 -0.046852998435497284
          0.0031240000389516354 -0.2254820019006729 -0.03998899832367897 0.006682000122964382 -0.22125600278377533 -0.046858999878168106
          0.004540999885648489 -0.22954000532627106 -0.05233899876475334 -0.004509999882429838 -0.2348410040140152 -0.04379500076174736
          0.002966000000014901 -0.22578799724578857 -0.04030599817633629 0.0035800000187009573 -0.1871650069952011 -0.04038099944591522
          -0.008311999961733818 -0.18918299674987793 -0.036361999809741974 -0.000029999999242136255 -0.18722400069236755 -0.030549999326467514
          -0.003628999926149845 -0.16205599904060364 -0.026291999965906143 -0.009909000247716904 -0.163224995136261 -0.029048999771475792
          -0.007482000160962343 -0.13920700550079346 -0.022154999896883965 -0.01907999999821186 -0.09846100211143494 -0.0300539992749691
          0.004925999790430069 -0.01332900021225214 -0.007780000101774931 0.004925999790430069 -0.01332900021225214 -0.007780000101774931
          -0.0006880000000819564 -0.012640999630093575 -0.0036230001132935286 0.006211999803781509 -0.00991899985820055 -0.0016060000052675605
          -0.006988999899476767 -0.010852999985218048 -0.0026740001048892736 -0.006988999899476767 -0.010852999985218048 -0.0026740001048892736
          -0.006101000122725964 -0.011526999995112419 -0.0003549999964889139 0.0037350000347942114 -0.017103999853134155 0.007017000112682581
          0.0021279999054968357 -0.017355000600218773 0.010677999816834927 -0.010228999890387058 0.011257000267505646 -0.008116000331938267
          -0.022600000724196434 0.0001500000071246177 -0.00877899955958128 -0.014883999712765217 -0.011750999838113785 -0.01115499995648861
          -0.011490000411868095 -0.014189999550580978 -0.014937000349164009 -0.011490000411868095 -0.014189999550580978 -0.014937000349164009
          -0.015355999581515789 0.008150000125169754 -0.010269000194966793 -0.016029000282287598 0.00330700003542006 -0.011049999855458736
          -0.005171000026166439 0.010976999998092651 -0.00010299999848939478 -0.011416999623179436 0.010027999989688396 0.011276000179350376
          -0.02480199933052063 -0.006831000093370676 0.008612999692559242 -0.01726900041103363 0.0090549997985363 0.010982999578118324
          -0.015258999541401863 -0.04730900004506111 -0.022130999714136124 -0.015258999541401863 -0.04730900004506111 -0.022130999714136124
          -0.024555999785661697 -0.04785199835896492 -0.01853499934077263 -0.00927599985152483 -0.04971399903297424 -0.007927999831736088
          -0.00927599985152483 -0.04971399903297424 -0.007927999831736088 -0.008957999758422375 -0.015084999613463879 0.012606999836862087
          -0.007814999669790268 -0.049835000187158585 -0.01459100004285574 -0.007814999669790268 -0.049835000187158585 -0.01459100004285574
          -0.007814999669790268 -0.049835000187158585 -0.01459100004285574 -0.007814999669790268 -0.049835000187158585 -0.01459100004285574
          -0.0034580000210553408 -0.025769999250769615 -0.00952600035816431 -0.0004839999892283231 -0.02174299955368042 -0.011657999828457832
          -0.009093999862670898 -0.0361890010535717 -0.01450399961322546 -0.009093999862670898 -0.0361890010535717 -0.01450399961322546
          -0.006957000121474266 -0.038474999368190765 -0.0053610000759363174 -0.006957000121474266 -0.038474999368190765 -0.0053610000759363174
          -0.011115999892354012 -0.07182099670171738 -0.012424999848008156 0.009410000406205654 -0.24367600679397583 -0.043255001306533813
          0.012916999869048595 -0.24160200357437134 -0.0466650016605854 0.004298999905586243 -0.24330799281597137 -0.05050700157880783
          -0.01907999999821186 -0.09846100211143494 -0.0300539992749691 -0.0004839999892283231 -0.02174299955368042 -0.011657999828457832
          -0.009093999862670898 -0.0361890010535717 -0.01450399961322546 -0.006957000121474266 -0.038474999368190765 -0.0053610000759363174
          -0.006988999899476767 -0.010852999985218048 -0.0026740001048892736 -0.006988999899476767 -0.010852999985218048 -0.0026740001048892736
          -0.00927599985152483 -0.04971399903297424 -0.007927999831736088 -0.004182999953627586 -0.24611499905586243 -0.0460439994931221
          -0.004182999953627586 -0.24611499905586243 -0.0460439994931221 -0.008311999961733818 -0.18918299674987793 -0.036361999809741974
          -0.009587000124156475 -0.008685999549925327 -0.0048870001919567585 -0.01203600037842989 0.0007489999989047647 -0.00266700005158782
          -0.009587000124156475 -0.008685999549925327 -0.0048870001919567585 -0.008311999961733818 -0.18918299674987793 -0.036361999809741974
          -0.004509999882429838 -0.2348410040140152 -0.04379500076174736 -0.006014999933540821 -0.24188999831676483 -0.04867599904537201
          -0.01203600037842989 0.0007489999989047647 -0.00266700005158782 -0.01654299907386303 -0.010502000339329243 0.00800000037997961
          -0.02480199933052063 -0.006831000093370676 0.008612999692559242 -0.02480199933052063 -0.006831000093370676 0.008612999692559242
          -0.02480199933052063 -0.006831000093370676 0.008612999692559242 -0.01654299907386303 -0.010502000339329243 0.00800000037997961
          -0.009587000124156475 -0.008685999549925327 -0.0048870001919567585 -0.006957000121474266 -0.038474999368190765 -0.0053610000759363174
          0.009751000441610813 -0.24150800704956055 -0.05418400093913078 0.01017799973487854 -0.23555700480937958 -0.05504399910569191
          -0.01572299934923649 -0.0031739999540150166 0.011095000430941582 -0.010228999890387058 0.011257000267505646 -0.008116000331938267
          -0.01203600037842989 0.0007489999989047647 -0.00266700005158782 -0.011490000411868095 -0.014189999550580978 -0.014937000349164009
          -0.01126100029796362 -0.01695300079882145 -0.01707500033080578 -0.011490000411868095 -0.014189999550580978 -0.014937000349164009
          -0.014179999940097332 -0.0024939998984336853 -0.010495999827980995 -0.0004839999892283231 -0.02174299955368042 -0.011657999828457832
          -0.007814999669790268 -0.049835000187158585 -0.01459100004285574 -0.011509999632835388 -0.026965999975800514 -0.018995000049471855
          -0.015258999541401863 -0.04730900004506111 -0.022130999714136124 -0.009093999862670898 -0.0361890010535717 -0.01450399961322546
          -0.02726300060749054 -0.023614000529050827 -0.007712999824434519 -0.025203999131917953 -0.000674000009894371 0.01092899963259697
          0.0024999999441206455 -0.24407300353050232 -0.046852998435497284 0.00919399969279766 -0.2437870055437088 -0.043480999767780304
          -0.0013920000055804849 -0.24493800103664398 -0.045708999037742615
          <InformationKey name="L2_NORM_RANGE" location="vtkDataArray" length="2">
            <Value index="0">
              0.011813328734
            </Value>
            <Value index="1">
              0.25227477548
            </Value>
          </InformationKey>
        </DataArray>
      </Points>
      <Verts>
        <DataArray type="Int64" Name="connectivity" format="ascii" RangeMin="1e+299" RangeMax="-1e+299">
        </DataArray>
        <DataArray type="Int64" Name="offsets" format="ascii" RangeMin="1e+299" RangeMax="-1e+299">
        </DataArray>
      </Verts>
      <Lines>
        <DataArray type="Int64" Name="connectivity" format="ascii" RangeMin="1e+299" RangeMax="-1e+299">
        </DataArray>
        <DataArray type="Int64" Name="offsets" format="ascii" RangeMin="1e+299" RangeMax="-1e+299">
        </DataArray>
      </Lines>
      <Strips>
        <DataArray type="Int64" Name="connectivity" format="ascii" RangeMin="1e+299" RangeMax="-1e+299">
        </DataArray>
        <DataArray type="Int64" Name="offsets" format="ascii" RangeMin="1e+299" RangeMax="-1e+299">
        </DataArray>
      </Strips>
      <Polys>
        <DataArray type="Int64" Name="connectivity" format="ascii" RangeMin="0" RangeMax="144">
          62 114 132 3 65 2
          66 107 68 64 67 106
          65 123 2 70 123 65
          69 70 65 73 9 7
          133 9 73 76 113 71
          77 113 76 112 113 77
          132 114 134 130 11 129
          14 12 11 130 14 11
          124 119 10 14 13 12
          14 16 13 118 122 128
          119 121 10 18 17 80
          19 81 141 20 19 141
          21 19 20 22 19 21
          23 19 22 9 19 23
          7 9 23 81 13 16
          81 79 13 19 79 81
          19 78 79 19 6 78
          9 6 19 25 20 120
          25 21 20 25 22 21
          25 23 22 25 7 23
          74 27 26 74 24 27
          74 25 24 74 7 25
          75 8 72 25 15 28
          29 25 28 140 25 29
          30 140 29 105 140 30
          31 140 105 25 120 15
          31 84 140 32 34 83
          33 95 136 138 139 137
          82 94 91 1 131 0
          62 132 104 86 35 90
          103 125 30 92 97 93
          90 35 135 89 96 85
          5 30 29 28 5 29
          5 103 30 63 103 5
          4 63 5 31 105 36
          37 31 36 84 31 37
          26 27 38 88 26 38
          98 88 38 108 88 98
          41 42 40 43 42 41
          127 44 126 45 101 43
          45 46 101 47 46 45
          47 109 46 100 49 99
          42 142 40 101 142 42
          46 142 101 144 142 46
          48 142 144 51 40 50
          51 41 40 52 41 51
          115 116 52 40 39 50
          52 43 41 52 45 43
          116 45 52 116 47 45
          53 110 117 54 110 53
          54 143 110 58 51 50
          55 51 58 111 51 55
          111 52 51 59 54 56
          57 54 59 53 56 54
          102 59 56 60 59 102
          60 57 59 61 111 38
          55 58 98 38 55 98
          111 55 38 27 61 38
          37 102 84 60 102 37
          87 123 70
        </DataArray>
        <DataArray type="Int64" Name="offsets" format="ascii" RangeMin="3" RangeMax="357">
          3 6 9 12 15 18
          21 24 27 30 33 36
          39 42 45 48 51 54
          57 60 63 66 69 72
          75 78 81 84 87 90
          93 96 99 102 105 108
          111 114 117 120 123 126
          129 132 135 138 141 144
          147 150 153 156 159 162
          165 168 171 174 177 180
          183 186 189 192 195 198
          201 204 207 210 213 216
          219 222 225 228 231 234
          237 240 243 246 249 252
          255 258 261 264 267 270
          273 276 279 282 285 288
          291 294 297 300 303 306
          309 312 315 318 321 324
          327 330 333 336 339 342
          345 348 351 354 357
        </DataArray>
      </Polys>
    </Piece>
  </PolyData>
</VTKFile>
